/*--------------------------------*- C++ -*----------------------------------*\
  =========                 |
  \\      /  F ield         | OpenFOAM: The Open Source CFD Toolbox
   \\    /   O peration     | Website:  https://openfoam.org
    \\  /    A nd           | Version:  9
     \\/     M anipulation  |
\*---------------------------------------------------------------------------*/
FoamFile
{
    format      ascii;
    class       volVectorField;
    location    "0.5";
    object      U;
}
// * * * * * * * * * * * * * * * * * * * * * * * * * * * * * * * * * * * * * //

dimensions      [0 1 -1 0 0 0 0];

internalField   nonuniform List<vector> 
4545
(
(-0.0081469 -0.525187 -2.50474)
(0.0419187 -0.438468 1.11093e-05)
(0.0132129 -0.479922 1.26205e-06)
(0.0419191 -0.438477 -9.03974e-06)
(-0.00814734 -0.525154 2.50474)
(-0.00568597 -0.528337 -2.444)
(0.0294036 -0.425558 -0.000385455)
(0.010121 -0.475578 6.02443e-06)
(0.029378 -0.425578 0.00040604)
(-0.00537594 -0.528285 2.39274)
(0.0115236 -0.528135 -2.45255)
(0.0137073 -0.411573 -0.00115681)
(0.0138421 -0.466243 9.31089e-06)
(0.0137654 -0.411644 0.00120086)
(0.0111951 -0.528047 2.37015)
(0.0142799 -0.515934 -2.38262)
(0.00338896 -0.41751 -0.00166285)
(0.017783 -0.457554 1.69627e-06)
(0.00340648 -0.417502 0.00164573)
(0.0143403 -0.515648 2.40229)
(0.0159532 -0.503211 -2.3436)
(-0.00750781 -0.425963 -0.00241349)
(0.0170736 -0.451835 -3.84686e-06)
(-0.00750343 -0.425956 0.00230028)
(0.0159837 -0.50354 2.4451)
(0.0181211 -0.493284 -2.34814)
(-0.013654 -0.434956 -0.00337135)
(0.0153377 -0.449016 -1.21245e-06)
(-0.0136997 -0.434873 0.00326913)
(0.0183394 -0.492923 2.44023)
(0.0191665 -0.484775 -2.39578)
(-0.0152936 -0.442926 -0.0042177)
(0.0141984 -0.448844 4.02586e-06)
(-0.0154829 -0.442852 0.00418006)
(0.019329 -0.485067 2.43828)
(0.0196752 -0.47638 -2.38948)
(-0.0153131 -0.448594 -0.00497697)
(0.0137074 -0.44974 4.50422e-07)
(-0.0155042 -0.448529 0.00494206)
(0.0199525 -0.476362 2.43733)
(0.0199601 -0.470216 -2.38825)
(-0.014944 -0.452175 -0.00559245)
(0.0133445 -0.451016 -9.36343e-06)
(-0.0150979 -0.452138 0.00561448)
(0.0201518 -0.470335 2.38535)
(0.0199454 -0.464274 -2.38495)
(-0.014186 -0.45403 -0.0060344)
(0.0132258 -0.45202 -3.34829e-05)
(-0.014293 -0.453956 0.00614056)
(0.0200882 -0.464309 2.33435)
(0.0194638 -0.459179 -2.33374)
(-0.0131309 -0.454639 -0.00637213)
(0.0132084 -0.452482 -2.1103e-05)
(-0.0136108 -0.454573 0.00637872)
(0.0199417 -0.459319 2.38374)
(0.0190478 -0.455013 -2.38366)
(-0.011981 -0.454304 -0.00652969)
(0.0132709 -0.452318 -1.46698e-05)
(-0.0127719 -0.454333 0.00655006)
(0.0196658 -0.454706 2.38386)
(0.0187166 -0.450572 -2.38369)
(-0.0107979 -0.452635 -0.00669905)
(0.0135096 -0.451352 -1.44906e-05)
(-0.0114709 -0.452967 0.00672094)
(0.0193216 -0.450725 2.38299)
(0.0190879 -0.446622 -2.38262)
(-0.0104951 -0.450316 -0.00680103)
(0.0137591 -0.449654 -2.86138e-05)
(-0.0102319 -0.450573 0.00683487)
(0.0190724 -0.446339 2.38332)
(0.0194005 -0.442381 -2.43711)
(-0.0101065 -0.447693 -0.00679948)
(0.0139264 -0.447293 -2.57711e-05)
(-0.00928816 -0.447621 0.00683389)
(0.0188592 -0.442447 2.38241)
(0.0189866 -0.437623 -2.4372)
(-0.0088022 -0.444389 -0.00682151)
(0.0141774 -0.444241 1.01466e-05)
(-0.00835884 -0.444229 0.00683107)
(0.0186127 -0.437621 2.38234)
(0.0189219 -0.433216 -2.43728)
(-0.0075535 -0.440242 -0.00683674)
(0.0145697 -0.440493 2.38616e-05)
(-0.00743812 -0.440123 0.00685346)
(0.0186667 -0.433089 2.38129)
(0.0193882 -0.427952 -2.43724)
(-0.00672687 -0.435386 -0.00683887)
(0.014964 -0.436073 1.09945e-05)
(-0.00671629 -0.43554 0.00681849)
(0.0190152 -0.427987 2.43739)
(0.0196565 -0.422412 -2.43722)
(-0.00605177 -0.430189 -0.00680236)
(0.0153335 -0.431016 -6.16493e-06)
(-0.00544363 -0.430417 0.00680707)
(0.0189923 -0.422421 2.43741)
(0.0199156 -0.416148 -2.43719)
(-0.0052081 -0.424571 -0.00676574)
(0.0157582 -0.425266 -1.13837e-05)
(-0.00457035 -0.424369 0.00680281)
(0.0195376 -0.416307 2.43736)
(0.0201971 -0.409893 -2.43712)
(-0.0040269 -0.418124 -0.0067313)
(0.0162216 -0.418819 -3.53321e-06)
(-0.00443114 -0.417918 0.00682732)
(0.020478 -0.4098 2.38239)
(0.0206235 -0.402572 -2.43697)
(-0.00292199 -0.410956 -0.00669751)
(0.0167522 -0.411721 1.3956e-05)
(-0.00295654 -0.411129 0.00674899)
(0.0203851 -0.402563 2.38134)
(0.0210877 -0.394143 -2.38029)
(-0.00211839 -0.40341 -0.00672776)
(0.0172666 -0.403895 1.25682e-05)
(-0.00150386 -0.403295 0.00672653)
(0.0204461 -0.394388 2.38044)
(0.0208835 -0.386484 -2.37927)
(-0.000402598 -0.395305 -0.00672731)
(0.0178075 -0.395382 5.45873e-06)
(-0.00100096 -0.39491 0.00672825)
(0.021313 -0.386711 2.3791)
(0.0213739 -0.376779 -2.43698)
(0.00110856 -0.385959 -0.00662613)
(0.0184508 -0.386182 -1.65837e-05)
(0.000721564 -0.385939 0.0066951)
(0.0216194 -0.37732 2.38415)
(0.0221397 -0.367637 -2.43693)
(0.00237561 -0.376078 -0.00656137)
(0.0190731 -0.376291 -1.18105e-05)
(0.00243076 -0.375941 0.00662058)
(0.022119 -0.367412 2.38311)
(0.0225821 -0.356466 -2.386)
(0.00387473 -0.365686 -0.00656449)
(0.0196832 -0.365771 4.19429e-06)
(0.0035815 -0.365578 0.00656717)
(0.0229243 -0.357308 2.3833)
(0.0234415 -0.346206 -2.38484)
(0.00488379 -0.354361 -0.00650191)
(0.0202867 -0.354527 -7.83375e-06)
(0.00477482 -0.354262 0.00653191)
(0.0237332 -0.345965 2.38205)
(0.0240774 -0.333783 -2.38561)
(0.00615053 -0.342501 -0.00646002)
(0.0208989 -0.342631 3.83545e-06)
(0.00590205 -0.342366 0.00645884)
(0.0244372 -0.334034 2.38875)
(0.0243788 -0.322042 -2.38441)
(0.00760512 -0.330004 -0.00642945)
(0.0215254 -0.330077 3.26097e-05)
(0.00703243 -0.329841 0.0063777)
(0.0248582 -0.321729 2.38759)
(0.025057 -0.308431 -2.3958)
(0.00857404 -0.316949 -0.00636147)
(0.0221202 -0.316933 2.79116e-05)
(0.00787002 -0.317089 0.00633279)
(0.0255507 -0.308319 2.38813)
(0.0256498 -0.295158 -2.39468)
(0.00939121 -0.303359 -0.00627445)
(0.0227058 -0.303243 6.46268e-06)
(0.00887344 -0.303632 0.00629733)
(0.0261181 -0.29525 2.3868)
(0.0264182 -0.280896 -2.39543)
(0.00978226 -0.289324 -0.00620839)
(0.0232477 -0.289071 1.54273e-06)
(0.00974171 -0.289453 0.0061837)
(0.0266194 -0.28051 2.43464)
(0.026962 -0.266172 -2.3489)
(0.010308 -0.274651 -0.00620428)
(0.0237384 -0.274428 8.32245e-06)
(0.0101255 -0.274769 0.00615174)
(0.0272311 -0.266117 2.40259)
(0.0274869 -0.251516 -2.38626)
(0.0111134 -0.259658 -0.00605729)
(0.0242283 -0.259397 4.61552e-06)
(0.0107074 -0.259841 0.00606426)
(0.0278461 -0.250974 2.40135)
(0.0281257 -0.234603 -2.39043)
(0.0116785 -0.244137 -0.00594767)
(0.0246979 -0.243949 -1.181e-06)
(0.0114982 -0.244375 0.00592418)
(0.0282822 -0.235001 2.43283)
(0.0285117 -0.219988 -2.38881)
(0.0122799 -0.228708 -0.00586173)
(0.0251242 -0.228199 3.85619e-06)
(0.0121189 -0.228891 0.00583482)
(0.0286352 -0.218997 2.43214)
(0.0288665 -0.202025 -2.43149)
(0.0129064 -0.212906 -0.00572006)
(0.0255187 -0.212176 5.41327e-07)
(0.0128928 -0.213159 0.00578714)
(0.0288813 -0.202612 2.40559)
(0.0287242 -0.185826 -2.43153)
(0.0138337 -0.19704 -0.00562214)
(0.025879 -0.195895 -1.241e-05)
(0.0138503 -0.19713 0.00574981)
(0.0287798 -0.185298 2.36824)
(0.000362437 -0.570874 -2.50424)
(-0.00704964 -0.359586 -0.000605532)
(-0.00423214 -0.469136 -6.38314e-07)
(-0.00705084 -0.359591 0.000603319)
(0.000364468 -0.570823 2.50425)
(0.0032805 -0.579499 -2.4118)
(-0.0159273 -0.366813 0.00025525)
(-0.00319275 -0.466472 -3.50055e-06)
(-0.015936 -0.366843 -0.000274441)
(0.00327637 -0.579497 2.41183)
(0.0229648 -0.562061 -2.38569)
(-0.0274956 -0.400638 0.00244207)
(9.44706e-05 -0.458518 4.55316e-06)
(-0.0276033 -0.400655 -0.00242306)
(0.0231302 -0.561934 2.3857)
(0.0301801 -0.534882 -2.32572)
(-0.0352911 -0.428311 0.00373123)
(0.00229286 -0.455962 6.76884e-08)
(-0.0350944 -0.428342 -0.00371695)
(0.0299707 -0.534824 2.32664)
(0.0357888 -0.516776 -2.29548)
(-0.0417658 -0.44543 0.0035283)
(0.00171578 -0.456055 -3.10575e-06)
(-0.0414522 -0.445439 -0.00351258)
(0.035536 -0.516771 2.29568)
(0.0398433 -0.503568 -2.2725)
(-0.0449452 -0.456728 0.00266076)
(0.000827216 -0.457419 -5.24745e-06)
(-0.0447568 -0.456731 -0.00264934)
(0.0396635 -0.503637 2.27937)
(0.0424998 -0.493512 -2.26689)
(-0.0462239 -0.463249 0.00173068)
(0.00010445 -0.459598 -7.23507e-06)
(-0.0459933 -0.463228 -0.00172171)
(0.0422624 -0.493533 2.27375)
(0.0437433 -0.485591 -2.22723)
(-0.0461325 -0.467003 0.000925349)
(-0.000112298 -0.461608 -3.61938e-06)
(-0.0460925 -0.466854 -0.000923601)
(0.043712 -0.485737 2.22707)
(0.0442886 -0.479678 -2.22127)
(-0.0454314 -0.468797 0.000278608)
(8.39245e-06 -0.463081 1.52959e-05)
(-0.0456179 -0.468504 -0.000294759)
(0.0444028 -0.479852 2.2251)
(0.0449291 -0.474629 -2.26666)
(-0.0447845 -0.468785 -0.000203246)
(0.000273454 -0.46386 2.23929e-05)
(-0.0453457 -0.468831 0.00018027)
(0.0453557 -0.47461 2.27077)
(0.0449254 -0.470425 -2.23216)
(-0.0436694 -0.468083 -0.000565115)
(0.000742486 -0.463951 2.50951e-05)
(-0.0440924 -0.468416 0.000533082)
(0.0452869 -0.470296 2.22528)
(0.0455581 -0.466573 -2.23118)
(-0.0429671 -0.46656 -0.00081932)
(0.0013516 -0.463282 1.25401e-05)
(-0.0428455 -0.466904 0.000802023)
(0.0453575 -0.466271 2.17858)
(0.0463454 -0.462609 -2.2699)
(-0.0423441 -0.464614 -0.00100607)
(0.00209212 -0.461872 -2.62185e-05)
(-0.0420651 -0.464783 0.00102125)
(0.046053 -0.462627 2.22104)
(0.0463502 -0.458644 -2.22058)
(-0.0406803 -0.462383 -0.00116919)
(0.00292869 -0.459961 -3.72722e-05)
(-0.0410182 -0.462036 0.00118874)
(0.0466421 -0.458644 2.26866)
(0.0467304 -0.454557 -2.16883)
(-0.0392704 -0.45912 -0.00128642)
(0.00377866 -0.457369 -7.35294e-06)
(-0.0396034 -0.458805 0.00129932)
(0.0469729 -0.454743 2.2681)
(0.0477349 -0.45022 -2.17308)
(-0.0384239 -0.455258 -0.00136015)
(0.00473246 -0.454098 7.53733e-06)
(-0.0382732 -0.455187 0.00138089)
(0.0475406 -0.450149 2.22028)
(0.0488214 -0.445508 -2.16844)
(-0.0376187 -0.45106 -0.00142386)
(0.0057963 -0.450157 6.54799e-06)
(-0.0371273 -0.450959 0.00144842)
(0.0482933 -0.445643 2.16793)
(0.0497143 -0.440409 -2.16342)
(-0.0363708 -0.446263 -0.00148189)
(0.00687463 -0.445604 2.49452e-05)
(-0.0363282 -0.446201 0.00146967)
(0.0496409 -0.440548 2.21467)
(0.0503136 -0.434666 -2.17457)
(-0.034674 -0.440914 -0.00151864)
(0.00805288 -0.440436 2.34233e-05)
(-0.0352387 -0.440975 0.00151368)
(0.0508679 -0.434479 2.21383)
(0.0511563 -0.428522 -2.17292)
(-0.0330328 -0.435044 -0.00154767)
(0.00938984 -0.434655 -7.96554e-06)
(-0.0336174 -0.435242 0.00156651)
(0.0517334 -0.428563 2.16341)
(0.052602 -0.421881 -2.20546)
(-0.0317324 -0.4283 -0.00153756)
(0.0107852 -0.428158 -1.51294e-05)
(-0.031746 -0.428465 0.0015683)
(0.0526293 -0.421964 2.17791)
(0.0543483 -0.414385 -2.20839)
(-0.0304423 -0.421258 -0.00155868)
(0.0122556 -0.421037 -3.09363e-06)
(-0.0300003 -0.420908 0.00155208)
(0.0539406 -0.414446 2.22544)
(0.0556662 -0.406506 -2.2058)
(-0.028621 -0.413513 -0.00158722)
(0.0139122 -0.413255 3.58037e-05)
(-0.0283859 -0.41349 0.00158539)
(0.055394 -0.406373 2.2074)
(0.0575443 -0.397433 -2.20581)
(-0.0270811 -0.4049 -0.00160309)
(0.0156545 -0.404722 3.76974e-05)
(-0.0267096 -0.405388 0.00160648)
(0.057022 -0.398121 2.19332)
(0.0590971 -0.388638 -2.15639)
(-0.0252461 -0.396135 -0.00165213)
(0.0173936 -0.395529 -3.70563e-05)
(-0.0251609 -0.396199 0.00162955)
(0.059102 -0.388023 2.21021)
(0.0607788 -0.37844 -2.20269)
(-0.0234496 -0.386641 -0.00165626)
(0.0191412 -0.385615 -2.32389e-05)
(-0.0234176 -0.386516 0.00165553)
(0.06066 -0.378978 2.21964)
(0.0622838 -0.367752 -2.25124)
(-0.0214905 -0.376148 -0.0016527)
(0.0209718 -0.374998 1.34642e-05)
(-0.0214069 -0.375906 0.00164362)
(0.0624241 -0.367684 2.25033)
(0.0638381 -0.356596 -2.24899)
(-0.0192984 -0.364578 -0.00165669)
(0.0228952 -0.363646 9.59486e-06)
(-0.0194222 -0.364493 0.00166756)
(0.0641112 -0.356631 2.21034)
(0.0658445 -0.344327 -2.24712)
(-0.0174543 -0.352194 -0.00163395)
(0.024867 -0.351526 2.99787e-05)
(-0.0171943 -0.352088 0.0016244)
(0.0656542 -0.34454 2.20769)
(0.0677808 -0.331399 -2.20449)
(-0.0155264 -0.339542 -0.00166848)
(0.0268642 -0.338784 4.17283e-05)
(-0.0148314 -0.33955 0.00161332)
(0.0671053 -0.331389 2.19855)
(0.0695126 -0.31855 -2.20019)
(-0.0134066 -0.326222 -0.00167098)
(0.0288426 -0.325428 2.82954e-05)
(-0.0127221 -0.326389 0.0016146)
(0.068729 -0.318624 2.19535)
(0.0711958 -0.303955 -2.23907)
(-0.0111985 -0.312049 -0.00162654)
(0.030788 -0.311453 2.23472e-05)
(-0.0109327 -0.311821 0.00159903)
(0.0709555 -0.303734 2.19906)
(0.0727048 -0.289958 -2.23766)
(-0.00915225 -0.297524 -0.00160111)
(0.0326494 -0.296958 4.27504e-05)
(-0.00910471 -0.297363 0.00160276)
(0.0727165 -0.289378 2.14934)
(0.0745264 -0.27413 -2.23464)
(-0.00736811 -0.282364 -0.00157037)
(0.0344494 -0.281975 2.03513e-05)
(-0.00728538 -0.282778 0.00153948)
(0.0743519 -0.274764 2.19125)
(0.0762102 -0.259159 -2.23157)
(-0.00562504 -0.266965 -0.00153418)
(0.0361853 -0.266597 -1.14708e-05)
(-0.00551615 -0.267073 0.00151797)
(0.0762224 -0.258246 2.19208)
(0.077696 -0.242584 -2.2284)
(-0.00379692 -0.251134 -0.00148766)
(0.0378584 -0.250813 -6.40096e-06)
(-0.00376384 -0.251267 0.00147765)
(0.0777214 -0.242893 2.18844)
(0.0792715 -0.226573 -2.2251)
(-0.00229814 -0.235154 -0.00144125)
(0.0394616 -0.234679 -4.65181e-06)
(-0.00217585 -0.235343 0.00142742)
(0.0792097 -0.226119 2.20466)
(0.0806624 -0.209277 -2.22062)
(-0.000749109 -0.218895 -0.00140296)
(0.0409951 -0.218314 -2.05861e-05)
(-0.000694096 -0.219076 0.00141129)
(0.080558 -0.209344 2.1978)
(0.081433 -0.192482 -2.21443)
(0.000963653 -0.202178 -0.00136272)
(0.0425219 -0.201634 -2.18732e-05)
(0.000834764 -0.202257 0.00138066)
(0.0815132 -0.192263 2.18795)
(-0.000884972 -0.562738 -2.50398)
(0.0129488 -0.394646 -0.000404837)
(0.00620181 -0.488548 -4.38855e-07)
(0.0129386 -0.394645 0.000403501)
(-0.000868196 -0.562707 2.50398)
(-0.000885638 -0.573324 -2.4037)
(0.00830436 -0.388575 0.00102205)
(0.00738841 -0.484115 -1.89063e-06)
(0.00830175 -0.388585 -0.00102573)
(-0.000831729 -0.573318 2.4037)
(0.00694344 -0.557884 -2.35731)
(0.000349602 -0.407163 0.00432779)
(0.00823116 -0.468826 2.45813e-06)
(0.000332316 -0.407133 -0.004328)
(0.00699424 -0.557846 2.35734)
(0.0106871 -0.532419 -2.28372)
(-0.0055237 -0.433259 0.0067513)
(0.00846549 -0.462681 -5.33242e-06)
(-0.00555521 -0.433223 -0.00674481)
(0.0106817 -0.532423 2.28458)
(0.0130351 -0.516002 -2.24629)
(-0.00930307 -0.449309 0.00715814)
(0.00782501 -0.460396 -1.20772e-05)
(-0.00934118 -0.44927 -0.00714135)
(0.0130118 -0.516007 2.24641)
(0.014939 -0.503987 -2.22798)
(-0.0113329 -0.460376 0.00653625)
(0.00712388 -0.460761 -9.99916e-06)
(-0.0113909 -0.460289 -0.00652323)
(0.0149398 -0.504013 2.22809)
(0.0162367 -0.49451 -2.22072)
(-0.0118706 -0.466812 0.00567047)
(0.00674394 -0.462098 -4.04816e-06)
(-0.0119959 -0.466722 -0.00566645)
(0.0163111 -0.494558 2.21899)
(0.0171699 -0.487375 -2.1894)
(-0.0115591 -0.470149 0.00487706)
(0.00689646 -0.463915 -5.94049e-07)
(-0.011713 -0.4701 -0.00488225)
(0.0172536 -0.487456 2.19611)
(0.018215 -0.48156 -2.18803)
(-0.0111809 -0.471738 0.00421755)
(0.00737285 -0.465216 2.22283e-05)
(-0.0111206 -0.47171 -0.00424775)
(0.0182044 -0.481648 2.19455)
(0.0189518 -0.477062 -2.1825)
(-0.0103405 -0.471957 0.0036731)
(0.00804409 -0.465908 4.99545e-05)
(-0.0102826 -0.472047 -0.00375833)
(0.018949 -0.476932 2.17193)
(0.0196066 -0.47311 -2.13813)
(-0.00923881 -0.471041 0.00326897)
(0.00890119 -0.465919 1.43866e-05)
(-0.00928347 -0.471296 -0.00334594)
(0.0196262 -0.473088 2.12753)
(0.0201555 -0.469532 -2.17034)
(-0.00787574 -0.46956 0.00297654)
(0.00999647 -0.465214 -6.32684e-06)
(-0.00804254 -0.469654 -0.00302541)
(0.0203952 -0.469359 2.12619)
(0.0208677 -0.465694 -2.21519)
(-0.00626014 -0.467743 0.00274324)
(0.0112881 -0.463898 -5.82389e-06)
(-0.0069143 -0.467514 -0.00278074)
(0.0213584 -0.465698 2.12525)
(0.0220761 -0.461894 -2.16766)
(-0.00510963 -0.4654 0.00254789)
(0.0126648 -0.461977 2.6254e-05)
(-0.00544038 -0.465095 -0.00256999)
(0.0223004 -0.462016 2.13196)
(0.0233602 -0.458084 -2.11779)
(-0.0037752 -0.462155 0.00239712)
(0.0141113 -0.459411 5.10611e-05)
(-0.00365002 -0.46219 -0.00240658)
(0.0232369 -0.458234 2.1278)
(0.0245792 -0.453852 -2.12)
(-0.00197932 -0.458227 0.00229565)
(0.0157331 -0.456172 1.42472e-06)
(-0.00185093 -0.45832 -0.00226864)
(0.0244954 -0.453943 2.13139)
(0.0259886 -0.449213 -2.11593)
(0.000112762 -0.454131 0.00219278)
(0.0175714 -0.452275 -2.17462e-05)
(0.000145749 -0.453962 -0.0021606)
(0.0259555 -0.449439 2.12663)
(0.0278137 -0.444356 -2.11361)
(0.00219348 -0.449316 0.00208909)
(0.0195972 -0.447832 2.19177e-05)
(0.00246041 -0.449345 -0.00209767)
(0.0275569 -0.44451 2.13705)
(0.0297948 -0.438884 -2.10825)
(0.00464938 -0.443941 0.00200813)
(0.0218179 -0.4428 3.6724e-05)
(0.00498433 -0.44411 -0.00203806)
(0.0295327 -0.438801 2.13381)
(0.0317481 -0.433056 -2.10599)
(0.00726904 -0.438285 0.00193493)
(0.0241897 -0.437182 4.53564e-05)
(0.00736207 -0.438287 -0.0019834)
(0.0317506 -0.432985 2.11679)
(0.0341161 -0.426601 -2.14955)
(0.00992233 -0.431784 0.00190484)
(0.0266855 -0.430907 1.26923e-05)
(0.0100015 -0.432064 -0.00192301)
(0.0341478 -0.42632 2.11472)
(0.0366673 -0.419127 -2.15582)
(0.0128467 -0.424865 0.00186932)
(0.0293422 -0.423904 -4.7375e-05)
(0.0129478 -0.42517 -0.00184771)
(0.0363931 -0.419354 2.1084)
(0.0391947 -0.411279 -2.10679)
(0.0158322 -0.417532 0.00179134)
(0.0321272 -0.416199 -2.65089e-05)
(0.0161202 -0.417295 -0.00180198)
(0.0389465 -0.41136 2.12755)
(0.0418123 -0.403038 -2.15091)
(0.0189719 -0.409012 0.00175692)
(0.0350447 -0.407797 6.75665e-06)
(0.0191295 -0.408677 -0.00176487)
(0.0417385 -0.402954 2.17197)
(0.0447417 -0.393856 -2.19439)
(0.0222608 -0.399204 0.00170245)
(0.038062 -0.39865 1.72732e-05)
(0.0221219 -0.399458 -0.00172711)
(0.0449426 -0.39337 2.19696)
(0.047973 -0.383344 -2.19142)
(0.0253018 -0.389346 0.00163736)
(0.0411543 -0.388759 2.45906e-05)
(0.0251204 -0.389752 -0.00165601)
(0.0479302 -0.383731 2.1489)
(0.050889 -0.373774 -2.19445)
(0.0280902 -0.379338 0.00160759)
(0.0443107 -0.378247 2.95416e-06)
(0.0281302 -0.378927 -0.00159491)
(0.0512584 -0.372884 2.12163)
(0.0546923 -0.3614 -2.1456)
(0.0311417 -0.367369 0.0015661)
(0.0475155 -0.366998 -1.70049e-05)
(0.0311909 -0.367516 -0.0015627)
(0.0545191 -0.361874 2.1348)
(0.0576945 -0.350208 -2.13674)
(0.0344196 -0.355538 0.0015696)
(0.0507563 -0.355072 -2.5639e-05)
(0.0344527 -0.355623 -0.00155301)
(0.0575473 -0.35011 2.15663)
(0.0607645 -0.337193 -2.14707)
(0.0376966 -0.343444 0.00156629)
(0.0540131 -0.342447 -2.24517e-05)
(0.037862 -0.342863 -0.00153445)
(0.060629 -0.337548 2.18002)
(0.0641594 -0.323755 -2.10763)
(0.0407465 -0.329882 0.00151845)
(0.0572883 -0.329138 -1.42381e-05)
(0.0408803 -0.329792 -0.00151384)
(0.0642781 -0.323512 2.18032)
(0.0674837 -0.310049 -2.13617)
(0.0439307 -0.31587 0.0015119)
(0.0605305 -0.315255 5.68385e-06)
(0.0438255 -0.316356 -0.00150293)
(0.0673615 -0.310321 2.16957)
(0.0708459 -0.295378 -2.16898)
(0.0470918 -0.301408 0.00151772)
(0.0636859 -0.30075 1.77806e-05)
(0.0472163 -0.301551 -0.00149688)
(0.0706318 -0.29508 2.15161)
(0.0740633 -0.279851 -2.16505)
(0.0500932 -0.286215 0.00149983)
(0.0667628 -0.285749 1.70401e-06)
(0.0501789 -0.286348 -0.00149789)
(0.0738402 -0.280028 2.16944)
(0.0769877 -0.264496 -2.16088)
(0.0530511 -0.270562 0.00150559)
(0.069733 -0.270326 -2.24523e-05)
(0.052935 -0.270855 -0.00150765)
(0.0769252 -0.264211 2.16811)
(0.0800341 -0.247809 -2.16526)
(0.0557954 -0.254738 0.00152432)
(0.072565 -0.254421 -3.61235e-05)
(0.0557946 -0.254833 -0.00152595)
(0.0796819 -0.247971 2.16406)
(0.0825453 -0.231655 -2.16104)
(0.058384 -0.238696 0.00155049)
(0.0752476 -0.238131 -2.85064e-05)
(0.0583173 -0.238576 -0.00154747)
(0.0825027 -0.231271 2.15998)
(0.0849615 -0.214024 -2.15692)
(0.0608693 -0.22225 0.00156843)
(0.0777869 -0.221618 -8.15062e-06)
(0.0607281 -0.222208 -0.00157066)
(0.0850351 -0.214245 2.15616)
(0.0868214 -0.19709 -2.13481)
(0.0633503 -0.205403 0.00159789)
(0.0801958 -0.204769 5.64002e-06)
(0.0631406 -0.20521 -0.00161388)
(0.0870286 -0.196861 2.14407)
(0.00208093 -0.569386 -2.50394)
(-0.0023001 -0.377228 -0.000509327)
(-0.000680002 -0.482237 -4.54014e-08)
(-0.00230811 -0.37722 0.000508611)
(0.00209164 -0.569404 2.50394)
(0.00202435 -0.580393 -2.40187)
(-0.00381066 -0.377348 0.00090226)
(-0.000866866 -0.479017 1.83523e-07)
(-0.00380979 -0.377326 -0.000903306)
(0.00205072 -0.580415 2.40186)
(0.00690419 -0.563349 -2.35115)
(-0.005234 -0.402829 0.00418598)
(-0.000881871 -0.466671 1.08275e-06)
(-0.00523337 -0.402825 -0.00418529)
(0.00692829 -0.563473 2.35113)
(0.0103309 -0.535706 -2.27337)
(-0.00701855 -0.431559 0.0066331)
(-0.000881186 -0.461778 -3.66073e-07)
(-0.00701068 -0.431548 -0.00663046)
(0.0103134 -0.535771 2.27336)
(0.0125951 -0.518009 -2.23219)
(-0.00851262 -0.448643 0.00699288)
(-0.0014042 -0.459887 -6.45232e-07)
(-0.00852727 -0.448608 -0.00698901)
(0.0125634 -0.518057 2.23217)
(0.0145571 -0.505504 -2.21224)
(-0.00928103 -0.460499 0.00629564)
(-0.00180106 -0.460702 5.45712e-07)
(-0.00929308 -0.460436 -0.0062933)
(0.0145168 -0.505596 2.21219)
(0.0162623 -0.495862 -2.20418)
(-0.00944465 -0.467478 0.0053829)
(-0.0019713 -0.462661 6.50424e-06)
(-0.00941414 -0.467437 -0.00538454)
(0.0161913 -0.495886 2.20085)
(0.0176802 -0.488571 -2.16998)
(-0.00914326 -0.471148 0.00455921)
(-0.00165961 -0.464922 -1.06078e-06)
(-0.00910982 -0.471175 -0.00457359)
(0.0176535 -0.488643 2.19722)
(0.0187881 -0.482837 -2.16856)
(-0.00828532 -0.472896 0.0039162)
(-0.00102661 -0.466483 2.39316e-06)
(-0.0083305 -0.472692 -0.00394078)
(0.0189311 -0.482861 2.17857)
(0.0200606 -0.478354 -2.17781)
(-0.00736468 -0.473167 0.00340705)
(-0.000140144 -0.467337 1.22205e-05)
(-0.00713029 -0.473124 -0.00342846)
(0.0199574 -0.47817 2.13742)
(0.0211429 -0.474399 -2.17536)
(-0.00603042 -0.472574 0.00299606)
(0.000980557 -0.467539 -1.66589e-05)
(-0.00588629 -0.472833 -0.0030073)
(0.0210021 -0.474527 2.14858)
(0.0222338 -0.47087 -2.19919)
(-0.0045351 -0.471367 0.00268106)
(0.00235369 -0.467003 2.91122e-05)
(-0.00458983 -0.47106 -0.00269276)
(0.0224626 -0.470764 2.14995)
(0.023805 -0.467344 -2.15758)
(-0.0031598 -0.469199 0.00245511)
(0.00395967 -0.465832 8.06936e-05)
(-0.00314301 -0.469155 -0.00247261)
(0.02375 -0.46749 2.15399)
(0.0253895 -0.463973 -2.10845)
(-0.00165364 -0.466739 0.00229972)
(0.00576394 -0.46406 2.50792e-05)
(-0.00133556 -0.467129 -0.00230283)
(0.0251348 -0.463818 2.15093)
(0.0272042 -0.460089 -2.10413)
(4.3331e-05 -0.464075 0.00217117)
(0.00774423 -0.461668 -1.6478e-05)
(0.000322996 -0.464121 -0.0021551)
(0.0269536 -0.4602 2.10179)
(0.0289451 -0.456219 -2.10233)
(0.00228324 -0.460905 0.00204885)
(0.00993305 -0.458743 9.4944e-06)
(0.00220469 -0.460688 -0.00204327)
(0.0290151 -0.456307 2.10197)
(0.031206 -0.452058 -2.10025)
(0.00462436 -0.45705 0.00193837)
(0.0123902 -0.455308 3.99416e-05)
(0.00464007 -0.457213 -0.00196306)
(0.0311068 -0.452071 2.09968)
(0.0338422 -0.447505 -2.10649)
(0.00708374 -0.452728 0.00187652)
(0.0151556 -0.451237 -1.62736e-05)
(0.00737192 -0.453048 -0.00188447)
(0.0335002 -0.44745 2.14113)
(0.0364147 -0.442233 -2.10131)
(0.0101968 -0.448046 0.00182604)
(0.018198 -0.446505 -5.48783e-05)
(0.0103327 -0.447903 -0.00181524)
(0.0365065 -0.442004 2.13788)
(0.0393847 -0.436567 -2.13577)
(0.0133163 -0.442494 0.00178459)
(0.0214462 -0.441147 -3.28889e-06)
(0.0134906 -0.442511 -0.00178209)
(0.0392385 -0.436594 2.13532)
(0.0426516 -0.43028 -2.18171)
(0.0167939 -0.436241 0.00175233)
(0.0248945 -0.435133 -1.12349e-05)
(0.0169606 -0.436403 -0.00174612)
(0.0423825 -0.430267 2.18132)
(0.0459458 -0.423338 -2.13526)
(0.0205894 -0.429713 0.00170189)
(0.0285356 -0.428486 -1.35962e-05)
(0.0203833 -0.429397 -0.00168656)
(0.0461442 -0.423277 2.13912)
(0.0495959 -0.415859 -2.08586)
(0.0243205 -0.422312 0.00164664)
(0.032443 -0.421099 2.92059e-05)
(0.0243506 -0.422239 -0.00165949)
(0.049537 -0.415896 2.08603)
(0.0535582 -0.407884 -2.12885)
(0.0282419 -0.414011 0.00165136)
(0.0365618 -0.412973 1.07842e-05)
(0.0284145 -0.414248 -0.00162514)
(0.0534377 -0.407494 2.08371)
(0.05785 -0.398586 -2.12932)
(0.0324428 -0.405189 0.00162145)
(0.0408881 -0.404153 -7.02554e-06)
(0.0327369 -0.405091 -0.00160593)
(0.0575239 -0.398851 2.12694)
(0.061975 -0.389175 -2.07447)
(0.0371652 -0.395512 0.00155301)
(0.0454443 -0.394588 -2.54194e-06)
(0.0372381 -0.395387 -0.00159447)
(0.0620322 -0.389232 2.17268)
(0.0667933 -0.378887 -2.12822)
(0.0417324 -0.385002 0.00158786)
(0.0501336 -0.384261 4.69499e-06)
(0.041732 -0.385054 -0.00155947)
(0.0668704 -0.378615 2.13504)
(0.0714335 -0.367687 -2.12946)
(0.0464994 -0.374136 0.00155665)
(0.0549203 -0.373166 1.85842e-05)
(0.0466136 -0.374108 -0.00151881)
(0.0713064 -0.367873 2.08125)
(0.0758227 -0.355803 -2.06988)
(0.0516951 -0.36221 0.00147238)
(0.059784 -0.36129 3.90395e-06)
(0.051549 -0.362217 -0.00149782)
(0.0759443 -0.355965 2.12439)
(0.0805508 -0.343788 -2.07976)
(0.0564242 -0.349468 0.00147906)
(0.0646486 -0.348805 -2.94662e-05)
(0.0563797 -0.349578 -0.0014613)
(0.0807992 -0.343226 2.11002)
(0.0854337 -0.330043 -2.12604)
(0.0611888 -0.33621 0.00152296)
(0.0695249 -0.335585 -2.70668e-05)
(0.0612776 -0.336089 -0.00147639)
(0.0852065 -0.33047 2.11297)
(0.0898778 -0.31596 -2.11633)
(0.066015 -0.322513 0.00151144)
(0.0743289 -0.321615 2.09354e-05)
(0.0658787 -0.322159 -0.00154419)
(0.0903479 -0.316163 2.16021)
(0.0945786 -0.301269 -2.11222)
(0.0706518 -0.307845 0.00149617)
(0.0790422 -0.307033 4.43258e-05)
(0.0704213 -0.307956 -0.00150962)
(0.0948153 -0.301441 2.11694)
(0.0994629 -0.286231 -2.13554)
(0.0750167 -0.292563 0.00152968)
(0.0836239 -0.291917 2.261e-05)
(0.0749989 -0.292643 -0.00145304)
(0.0995676 -0.285692 2.0763)
(0.103757 -0.270119 -2.09351)
(0.0794362 -0.276676 0.00153284)
(0.0879771 -0.276305 -1.66576e-05)
(0.0793761 -0.276755 -0.00150711)
(0.103757 -0.270687 2.1081)
(0.107645 -0.253837 -2.06884)
(0.0836975 -0.260342 0.00152903)
(0.0921205 -0.260175 -4.62191e-05)
(0.0835075 -0.260403 -0.00156898)
(0.108023 -0.253699 2.14352)
(0.111658 -0.237073 -2.10319)
(0.0874216 -0.244029 0.00159509)
(0.0960334 -0.243653 -2.08451e-05)
(0.0873085 -0.243904 -0.00158663)
(0.111827 -0.23713 2.12938)
(0.115502 -0.219902 -2.10257)
(0.0909039 -0.227588 0.00161828)
(0.0996994 -0.226861 1.60779e-05)
(0.0908811 -0.227379 -0.00163314)
(0.11545 -0.219893 2.11414)
(0.118475 -0.202177 -2.09045)
(0.094303 -0.209784 0.00166043)
(0.103106 -0.209602 5.46129e-06)
(0.0942065 -0.210203 -0.00168913)
(0.118489 -0.202228 2.11497)
(0.0011588 -0.571428 -2.50392)
(0.00353377 -0.385008 -0.000455822)
(0.00223164 -0.487863 -1.04697e-07)
(0.00353586 -0.385004 0.000455582)
(0.00115612 -0.571451 2.50392)
(0.00157319 -0.583888 -2.40188)
(0.00202767 -0.379811 0.000924214)
(0.00228602 -0.483617 2.94532e-07)
(0.00202696 -0.379798 -0.000923866)
(0.0015669 -0.583918 2.40188)
(0.00457534 -0.567377 -2.35044)
(0.000124113 -0.401542 0.00411403)
(0.00159792 -0.468358 1.29167e-06)
(0.000133783 -0.401527 -0.00411258)
(0.00455951 -0.567457 2.35042)
(0.00692657 -0.538716 -2.27086)
(-0.00134359 -0.430354 0.0065761)
(0.000988165 -0.462341 1.20544e-06)
(-0.00132299 -0.430352 -0.00657405)
(0.00690565 -0.538811 2.27082)
(0.00876719 -0.520229 -2.22846)
(-0.00206012 -0.448014 0.00693054)
(0.000768368 -0.460108 1.1218e-06)
(-0.00205483 -0.447991 -0.00692823)
(0.00872046 -0.520293 2.22838)
(0.0105471 -0.507313 -2.20781)
(-0.00219551 -0.460415 0.00619489)
(0.000822063 -0.460906 -2.35859e-06)
(-0.00217451 -0.460406 -0.00619047)
(0.0104677 -0.507393 2.2077)
(0.0122385 -0.497362 -2.19855)
(-0.00186824 -0.467826 0.00525343)
(0.00120036 -0.463019 1.1991e-06)
(-0.00179495 -0.467772 -0.00525193)
(0.0121216 -0.497506 2.19683)
(0.0137381 -0.489975 -2.18089)
(-0.00109666 -0.472054 0.00440806)
(0.00186169 -0.465479 4.38482e-05)
(-0.00106116 -0.471875 -0.00442532)
(0.0137269 -0.489992 2.19337)
(0.0151556 -0.484265 -2.17937)
(9.87037e-05 -0.474258 0.00370172)
(0.00272916 -0.467289 2.39529e-05)
(0.000139788 -0.47436 -0.00372759)
(0.0151654 -0.483921 2.14925)
(0.0167736 -0.479582 -2.15005)
(0.0014619 -0.474887 0.00314586)
(0.0038554 -0.468422 -3.76368e-05)
(0.00157 -0.475242 -0.00314526)
(0.0165477 -0.479558 2.14804)
(0.0182672 -0.475917 -2.10523)
(0.00313845 -0.474497 0.00269295)
(0.00524911 -0.468861 -4.88669e-05)
(0.00303916 -0.474462 -0.00270707)
(0.0184094 -0.475785 2.14722)
(0.0201096 -0.472648 -2.14971)
(0.00483133 -0.473047 0.00237499)
(0.00695396 -0.46862 -6.3521e-06)
(0.00502739 -0.472997 -0.00238349)
(0.0200235 -0.472605 2.14612)
(0.0221505 -0.469434 -2.19264)
(0.0067195 -0.471313 0.00214888)
(0.00889873 -0.467787 -2.09077e-06)
(0.00723592 -0.471481 -0.00213467)
(0.0218015 -0.4693 2.14562)
(0.0241822 -0.46593 -2.14404)
(0.00914142 -0.469366 0.00198432)
(0.0110591 -0.466298 -3.98613e-05)
(0.00922814 -0.469317 -0.00195329)
(0.0239929 -0.466256 2.09981)
(0.0265 -0.462552 -2.10012)
(0.0115658 -0.466954 0.00186228)
(0.0134899 -0.464177 -4.4994e-05)
(0.0116006 -0.466512 -0.00185521)
(0.0264952 -0.46286 2.1437)
(0.029102 -0.459093 -2.13988)
(0.0143374 -0.463771 0.001735)
(0.0161961 -0.46151 2.89737e-05)
(0.0144588 -0.463627 -0.0017461)
(0.029001 -0.459158 2.13981)
(0.0321026 -0.455175 -2.14355)
(0.0173048 -0.460068 0.00164332)
(0.0191469 -0.458359 2.29999e-05)
(0.0175129 -0.460289 -0.00164795)
(0.0318263 -0.45514 2.13985)
(0.0351849 -0.450953 -2.09282)
(0.0204473 -0.45627 0.00160177)
(0.0223577 -0.454674 -2.6958e-05)
(0.0203885 -0.456357 -0.00159643)
(0.0352502 -0.450856 2.13492)
(0.0387345 -0.44617 -2.08718)
(0.0238839 -0.451719 0.00154716)
(0.0259035 -0.450329 -1.29735e-05)
(0.0237636 -0.451795 -0.00153875)
(0.0389737 -0.445943 2.08976)
(0.0426202 -0.440931 -2.13027)
(0.0275734 -0.446656 0.001501)
(0.0297291 -0.445373 -2.87889e-05)
(0.0276163 -0.446778 -0.00148011)
(0.0424262 -0.441046 2.13344)
(0.0467289 -0.435027 -2.13983)
(0.0317659 -0.44118 0.00142693)
(0.0338981 -0.439794 -2.2378e-05)
(0.0317722 -0.440967 -0.00143208)
(0.0469132 -0.434928 2.1758)
(0.0514353 -0.428521 -2.08584)
(0.0361773 -0.434732 0.00136282)
(0.0384104 -0.433609 2.12457e-05)
(0.0362223 -0.434943 -0.00138753)
(0.0513098 -0.428554 2.13174)
(0.0560964 -0.421862 -2.12161)
(0.0407935 -0.427829 0.00134445)
(0.0432382 -0.426727 3.50019e-06)
(0.041189 -0.428049 -0.0013216)
(0.0558584 -0.421554 2.07769)
(0.0613612 -0.414009 -2.16675)