/*--------------------------------*- C++ -*----------------------------------*\
  =========                 |
  \\      /  F ield         | OpenFOAM: The Open Source CFD Toolbox
   \\    /   O peration     | Website:  https://openfoam.org
    \\  /    A nd           | Version:  9
     \\/     M anipulation  |
\*---------------------------------------------------------------------------*/
FoamFile
{
    format      ascii;
    class       volVectorField;
    location    "2.25";
    object      U;
}
// * * * * * * * * * * * * * * * * * * * * * * * * * * * * * * * * * * * * * //

dimensions      [0 1 -1 0 0 0 0];

internalField   nonuniform List<vector> 
36360
(
(0.00225361 -0.122467 -0.498421)
(-0.000388982 -0.0909713 0.000164223)
(0.00192182 -0.125813 -0.500807)
(-0.00172631 -0.0825871 8.26748e-05)
(0.00121415 -0.131445 -0.501052)
(0.00788301 -0.0793407 9.13884e-06)
(0.00374585 -0.136001 -0.502002)
(0.00866712 -0.0858596 1.24558e-05)
(0.00100579 -0.0989016 -0.000101746)
(-0.00199695 -0.103299 -5.46128e-06)
(-0.00150132 -0.0967824 -5.63151e-05)
(-0.00308854 -0.101364 -2.70137e-06)
(0.00635479 -0.103832 1.47876e-06)
(0.00442342 -0.106483 -5.47607e-06)
(0.00740982 -0.108881 -1.54882e-05)
(0.00658322 -0.109026 -4.90645e-06)
(-0.002818 -0.104694 -2.16139e-08)
(-0.00281805 -0.104693 3.29068e-08)
(-0.00313345 -0.10269 8.13326e-08)
(-0.00313345 -0.102689 -7.73803e-08)
(0.00457924 -0.104934 -1.91154e-06)
(0.0045791 -0.104933 1.92199e-06)
(0.00664421 -0.107469 -6.15052e-07)
(0.00664411 -0.107469 6.18175e-07)
(-0.00199645 -0.103297 5.47526e-06)
(0.00100724 -0.0988973 0.000101788)
(-0.00308852 -0.101362 2.70765e-06)
(-0.00150006 -0.0967781 5.63408e-05)
(0.00442313 -0.106481 5.48567e-06)
(0.00635536 -0.103825 -1.48877e-06)
(0.00658308 -0.109024 4.91166e-06)
(0.00740993 -0.108875 1.54806e-05)
(-0.000389202 -0.0909689 -0.000164257)
(0.00225464 -0.122471 0.49842)
(-0.00172679 -0.082583 -8.2701e-05)
(0.00192311 -0.125817 0.500806)
(0.00788176 -0.0793284 -9.13992e-06)
(0.00121603 -0.13146 0.501052)
(0.00866499 -0.0858457 -1.24527e-05)
(0.00374902 -0.13602 0.502002)
(0.00464812 -0.119189 -0.496609)
(-0.00350682 -0.0961493 0.00016494)
(0.00384081 -0.121173 -0.497556)
(-0.00170919 -0.0938308 0.000174598)
(0.00155779 -0.127388 -0.501033)
(0.000363518 -0.0748431 -5.75378e-05)
(0.00109576 -0.129624 -0.501246)
(0.00385627 -0.0745544 -1.85938e-05)
(0.0020944 -0.100387 -7.39401e-05)
(0.000938665 -0.104164 -1.16715e-05)
(0.0022994 -0.0998201 -9.30871e-05)
(0.00010693 -0.104014 -7.94515e-06)
(0.00436065 -0.0944873 9.12241e-05)
(0.00260225 -0.102654 -8.30006e-06)
(0.00591735 -0.0980606 4.16107e-05)
(0.00325566 -0.104385 -6.9529e-06)
(-0.000477924 -0.106098 -2.45319e-06)
(-0.000477711 -0.106097 2.46854e-06)
(-0.00173142 -0.105899 -1.12569e-06)
(-0.00173139 -0.105898 1.1417e-06)
(0.00169985 -0.103317 -3.3246e-06)
(0.00169964 -0.103316 3.3409e-06)
(0.00306003 -0.103558 -2.77564e-06)
(0.00305983 -0.103557 2.79123e-06)
(0.000939114 -0.104161 1.16804e-05)
(0.00209451 -0.100383 7.39482e-05)
(0.0001075 -0.104011 7.96077e-06)
(0.00229997 -0.0998157 9.31157e-05)
(0.00260229 -0.102651 8.30748e-06)
(0.0043608 -0.0944786 -9.12829e-05)
(0.00325546 -0.104383 6.96267e-06)
(0.00591787 -0.0980521 -4.16433e-05)
(-0.00350846 -0.0961463 -0.00016495)
(0.00464917 -0.119192 0.496608)
(-0.00171053 -0.0938278 -0.000174617)
(0.00384187 -0.121177 0.497555)
(0.000361395 -0.0748336 5.75663e-05)
(0.00155907 -0.127401 0.501033)
(0.00385455 -0.0745434 1.86058e-05)
(0.00109727 -0.129638 0.501246)
(0.00525773 -0.115694 -0.495317)
(-0.00562598 -0.0985641 0.00011648)
(0.00504326 -0.117316 -0.495868)
(-0.00478165 -0.0975218 0.000144185)
(0.00228866 -0.122222 -0.500774)
(-0.00262934 -0.0784128 -0.000152576)
(0.00198352 -0.124795 -0.500882)
(-0.00157302 -0.0762046 -0.000103593)
(0.00105449 -0.100423 -1.37301e-05)
(0.00094627 -0.103851 -1.16156e-05)
(0.00156617 -0.100478 -4.55324e-05)
(0.00106951 -0.104068 -1.33883e-05)
(0.00212217 -0.0904387 0.000199109)
(0.00126385 -0.0992726 -4.01676e-06)
(0.00298934 -0.09192 0.000145868)
(0.00189807 -0.100722 -7.37147e-06)
(0.000429091 -0.105617 -5.68173e-06)
(0.00042924 -0.105616 5.69907e-06)
(0.000227784 -0.105915 -4.10924e-06)
(0.000228 -0.105914 4.11655e-06)
(0.00077424 -0.10191 -5.34275e-06)
(0.000774388 -0.101909 5.36235e-06)
(0.00104671 -0.102712 -4.27945e-06)
(0.00104668 -0.102711 4.29481e-06)
(0.000946537 -0.103847 1.16285e-05)
(0.00105429 -0.100419 1.37147e-05)
(0.00106985 -0.104065 1.33893e-05)
(0.00156601 -0.100474 4.55302e-05)
(0.00126415 -0.099269 4.02002e-06)
(0.00212214 -0.0904308 -0.000199218)
(0.00189831 -0.100718 7.37551e-06)
(0.00298934 -0.0919117 -0.000145953)
(-0.0056276 -0.0985613 -0.000116479)
(0.00525893 -0.115696 0.495315)
(-0.00478334 -0.0975189 -0.00014419)
(0.00504432 -0.117319 0.495866)
(-0.00263158 -0.0784058 0.000152643)
(0.00228997 -0.122233 0.500774)
(-0.00157524 -0.0761964 0.00010364)
(0.00198473 -0.124807 0.500881)
(0.00547061 -0.113059 -0.494476)
(-0.00643108 -0.100216 5.13827e-05)
(0.00538438 -0.114286 -0.494832)
(-0.00614095 -0.0994469 8.48284e-05)
(0.00258338 -0.117459 -0.500616)
(-0.00344131 -0.083363 -0.000249399)
(0.00247105 -0.119761 -0.500683)
(-0.00318264 -0.0809 -0.000201727)
(0.000374032 -0.100404 4.59471e-05)
(0.000567568 -0.103246 1.49337e-06)
(0.00065231 -0.10037 1.74744e-05)
(0.000739738 -0.103532 -6.36316e-06)
(0.00121593 -0.0895451 0.000291231)
(0.000595872 -0.0976379 9.42024e-06)
(0.00158052 -0.0897297 0.000248)
(0.000843902 -0.0982909 1.73258e-06)
(0.000313501 -0.10494 -6.53565e-06)
(0.000313638 -0.104939 6.5536e-06)
(0.0003958 -0.105273 -6.46973e-06)
(0.000395948 -0.105272 6.48834e-06)
(0.000297286 -0.100881 -6.19732e-06)
(0.000297472 -0.10088 6.21747e-06)
(0.000491915 -0.101289 -6.05936e-06)
(0.00049213 -0.101288 6.07986e-06)
(0.000567763 -0.103242 -1.49767e-06)
(0.000373828 -0.1004 -4.59748e-05)
(0.00073996 -0.103528 6.36526e-06)
(0.000652085 -0.100367 -1.74969e-05)
(0.000596146 -0.0976339 -9.42803e-06)
(0.00121589 -0.0895383 -0.000291381)
(0.000844197 -0.0982871 -1.73435e-06)
(0.00158051 -0.0897224 -0.00024813)
(-0.00643259 -0.100213 -5.136e-05)
(0.00547214 -0.113061 0.494474)
(-0.00614252 -0.0994444 -8.48152e-05)
(0.00538571 -0.114289 0.49483)
(-0.00344365 -0.0833577 0.000249509)
(0.00258492 -0.117469 0.500616)
(-0.00318495 -0.080894 0.000201816)
(0.00247243 -0.119771 0.500683)
(0.00557572 -0.111039 -0.4939)
(-0.00660773 -0.101459 -1.45328e-05)
(0.00552905 -0.111985 -0.494136)
(-0.00656738 -0.100881 1.79145e-05)
(0.00266242 -0.113407 -0.500509)
(-0.0035574 -0.0877113 -0.000336294)
(0.00263446 -0.115341 -0.500554)
(-0.00353906 -0.0856552 -0.000294464)
(0.000109758 -0.1007 9.28884e-05)
(0.00037909 -0.102837 2.03556e-05)
(0.00020302 -0.100524 7.11687e-05)
(0.000449477 -0.103013 1.06397e-05)
(0.000841942 -0.0900533 0.000359623)
(0.000377103 -0.0968581 2.79953e-05)
(0.000983441 -0.0896967 0.000328356)
(0.000456913 -0.0971856 1.83875e-05)
(0.000236213 -0.104385 -4.74379e-06)
(0.000236321 -0.104384 4.75828e-06)
(0.000256812 -0.104642 -5.93086e-06)
(0.000256938 -0.104641 5.94759e-06)
(0.000161332 -0.10037 -4.64165e-06)
(0.000161468 -0.100368 4.65821e-06)
(0.000197499 -0.100598 -5.70365e-06)
(0.000197657 -0.100596 5.72266e-06)
(0.000379226 -0.102834 -2.03723e-05)
(0.000109587 -0.100697 -9.29236e-05)
(0.000449643 -0.10301 -1.06499e-05)
(0.000202835 -0.100521 -7.12003e-05)
(0.000377297 -0.0968539 -2.8017e-05)
(0.000841934 -0.0900475 -0.00035981)
(0.000457157 -0.0971815 -1.84018e-05)
(0.000983403 -0.0896904 -0.000328525)
(-0.00660926 -0.101457 1.45729e-05)
(0.00557752 -0.111041 0.493897)
(-0.00656889 -0.100879 -1.78829e-05)
(0.00553068 -0.111987 0.494134)
(-0.00355994 -0.0877071 0.000336444)
(0.00266412 -0.113416 0.500509)
(-0.0035415 -0.0856506 0.000294594)
(0.00263604 -0.11535 0.500554)
(0.00563367 -0.109446 -0.493503)
(-0.00653005 -0.102351 -7.39561e-05)
(0.00560796 -0.1102 -0.493656)
(-0.00658528 -0.101949 -4.52966e-05)
(0.0026504 -0.110047 -0.500433)
(-0.00345303 -0.0910355 -0.000409148)
(0.00265866 -0.111647 -0.500464)
(-0.00351536 -0.0895041 -0.000374526)
(6.4675e-05 -0.101115 0.000126344)
(0.000330986 -0.102607 3.95658e-05)
(7.07385e-05 -0.100905 0.000111191)
(0.000343733 -0.102707 3.01203e-05)
(0.000740697 -0.0910286 0.000406399)
(0.000296967 -0.0964121 4.73561e-05)
(0.000766675 -0.090519 0.00038542)
(0.000328912 -0.0966099 3.77668e-05)
(0.000262002 -0.103966 -1.03853e-06)
(0.000262069 -0.103965 1.04106e-06)
(0.00024187 -0.104163 -3.08177e-06)
(0.000241958 -0.104162 3.09181e-06)
(0.000168452 -0.0999329 -1.20506e-06)
(0.000168544 -0.0999313 1.20688e-06)
(0.000158006 -0.100155 -3.10319e-06)
(0.00015812 -0.100153 3.11466e-06)
(0.000331055 -0.102604 -3.96006e-05)
(6.45021e-05 -0.101112 -0.000126391)
(0.000343834 -0.102704 -3.01446e-05)
(7.05662e-05 -0.100902 -0.000111231)
(0.000296998 -0.0964079 -4.74027e-05)
(0.000740854 -0.0910238 -0.000406622)
(0.00032904 -0.0966056 -3.77979e-05)
(0.000766729 -0.0905138 -0.000385624)
(-0.0065317 -0.102349 7.40077e-05)
(0.00563563 -0.109448 0.493499)
(-0.00658688 -0.101946 4.53438e-05)
(0.0056098 -0.110202 0.493652)
(-0.00345579 -0.0910321 0.000409329)
(0.0026522 -0.110054 0.500433)
(-0.00351803 -0.0895004 0.000374692)
(0.00266036 -0.111655 0.500463)
(0.00565422 -0.108138 -0.493223)
(-0.00637187 -0.102908 -0.000124415)
(0.00564627 -0.108764 -0.493321)
(-0.00645383 -0.102669 -0.000100285)
(0.00259231 -0.107272 -0.500377)
(-0.0032879 -0.0933684 -0.000467865)
(0.00261944 -0.108593 -0.500398)
(-0.00336798 -0.0923166 -0.00044018)
(0.000103079 -0.101474 0.000148553)
(0.000335439 -0.102462 5.67581e-05)
(7.83554e-05 -0.101308 0.000138629)
(0.000330532 -0.102528 4.84294e-05)
(0.000793261 -0.0920228 0.000436254)
(0.000241962 -0.0961103 6.50246e-05)
(0.00075535 -0.0915382 0.000423123)
(0.000268606 -0.0962477 5.65031e-05)
(0.000316801 -0.103613 3.70789e-06)
(0.000316821 -0.103612 -3.70723e-06)
(0.000289058 -0.103786 1.31396e-06)
(0.000289106 -0.103784 -1.31958e-06)
(0.00019505 -0.0994437 3.23454e-06)
(0.000195089 -0.0994422 -3.16966e-06)
(0.000182239 -0.0996954 9.38857e-07)
(0.000182308 -0.0996938 -9.44934e-07)
(0.00033544 -0.10246 -5.68478e-05)
(0.000102967 -0.101471 -0.000148666)
(0.000330571 -0.102525 -4.8482e-05)
(7.81878e-05 -0.101305 -0.000138694)
(0.000241784 -0.0961068 -6.52333e-05)
(0.000793609 -0.0920185 -0.000436669)
(0.000268471 -0.0962437 -5.65815e-05)
(0.000755671 -0.0915338 -0.000423385)
(-0.0063736 -0.102906 0.000124462)
(0.00565633 -0.108139 0.493219)
(-0.00645555 -0.102667 0.000100336)
(0.00564824 -0.108765 0.493318)
(-0.00329083 -0.0933658 0.000468087)
(0.00259419 -0.107278 0.500377)
(-0.00337086 -0.0923137 0.000440369)
(0.0026212 -0.108599 0.500398)
(0.00564805 -0.107019 -0.493016)
(-0.00620327 -0.103174 -0.000166074)
(0.0056516 -0.107559 -0.493083)
(-0.00628554 -0.103073 -0.000146291)
(0.00251431 -0.104979 -0.500334)
(-0.00312045 -0.0948872 -0.000514538)
(0.00254841 -0.106071 -0.500349)
(-0.00319792 -0.0942163 -0.00049205)
(0.000174918 -0.101708 0.000162587)
(0.000348906 -0.102327 7.15226e-05)
(0.000137146 -0.101608 0.00015636)
(0.000341655 -0.102397 6.43899e-05)
(0.000892349 -0.0928606 0.000454883)
(0.000201189 -0.0958838 8.07849e-05)
(0.00084206 -0.092465 0.000445891)
(0.000219624 -0.0959913 7.24191e-05)
(0.000364497 -0.103271 8.36918e-06)
(0.000364571 -0.10327 -8.45095e-06)
(0.000342287 -0.103443 6.13555e-06)
(0.000342225 -0.103442 -6.04125e-06)
(0.000213234 -0.0989044 7.18486e-06)
(0.000213294 -0.0989028 -8.26705e-06)
(0.000205518 -0.0991783 6.01366e-06)
(0.000205472 -0.0991766 -4.94753e-06)
(0.000349241 -0.102325 -7.14284e-05)
(0.000174444 -0.101706 -0.000162482)
(0.000341338 -0.102395 -6.4585e-05)
(0.000137374 -0.101605 -0.000156595)
(0.000201344 -0.0958803 -7.96691e-05)
(0.0008923 -0.0928575 -0.000453872)
(0.000219156 -0.0959874 -7.36673e-05)
(0.000842681 -0.0924618 -0.000447424)
(-0.00620526 -0.103172 0.000166117)
(0.00565013 -0.107019 0.493012)
(-0.00628722 -0.103071 0.000146393)
(0.00565373 -0.10756 0.493079)
(-0.00312361 -0.0948856 0.000513991)
(0.00251617 -0.104984 0.500333)
(-0.00320086 -0.0942144 0.000493029)
(0.00255027 -0.106077 0.500349)
(0.00563134 -0.106024 -0.492848)
(-0.00604758 -0.103201 -0.000199533)
(0.00563777 -0.10651 -0.492897)
(-0.00612206 -0.103214 -0.000183721)
(0.00243599 -0.103073 -0.500298)
(-0.00296393 -0.0957845 -0.000550093)
(0.00246775 -0.103984 -0.50031)
(-0.00303411 -0.0954029 -0.000533026)
(0.000257473 -0.101808 0.000170138)
(0.000373937 -0.102154 8.34256e-05)
(0.000215538 -0.101775 0.000166983)
(0.00035994 -0.102246 7.77144e-05)
(0.000982359 -0.0934999 0.000464005)
(0.000177251 -0.0956813 9.24719e-05)
(0.000939207 -0.0932055 0.000459612)
(0.000187553 -0.0957813 8.63713e-05)
(0.000400758 -0.102911 1.28187e-05)
(0.000400752 -0.10291 -1.26637e-05)
(0.000383836 -0.103094 1.068e-05)
(0.000383789 -0.103093 -1.05844e-05)
(0.000223114 -0.0983404 1.18804e-05)
(0.000223048 -0.098339 -1.20142e-05)
(0.000218943 -0.0986237 1.01733e-05)
(0.000218898 -0.0986223 -9.60909e-06)
(0.000373972 -0.102152 -8.31997e-05)
(0.000257303 -0.101806 -0.0001704)
(0.00035976 -0.102244 -7.77765e-05)
(0.000215598 -0.101772 -0.000167089)
(0.000177245 -0.0956783 -9.2259e-05)
(0.000982597 -0.0934974 -0.000464034)
(0.000187247 -0.0957784 -8.69485e-05)
(0.000939641 -0.0932023 -0.00046043)
(-0.00604952 -0.103199 0.000199581)
(0.00563349 -0.106024 0.492843)
(-0.00612391 -0.103213 0.000183847)
(0.00563988 -0.10651 0.492892)
(-0.00296703 -0.0957834 0.000550205)
(0.00243793 -0.103077 0.500297)
(-0.00303716 -0.0954014 0.000533694)
(0.00246958 -0.103988 0.500309)
(0.00561781 -0.105108 -0.492701)
(-0.00590709 -0.103033 -0.000225873)
(0.00562076 -0.105559 -0.492742)
(-0.00597406 -0.103139 -0.000213464)
(0.00236736 -0.101461 -0.500266)
(-0.00282922 -0.0962144 -0.000577857)
(0.00239237 -0.102236 -0.500277)
(-0.00288675 -0.0960491 -0.000564596)
(0.000346541 -0.101772 0.000173846)
(0.000412776 -0.101923 9.24401e-05)
(0.000301793 -0.101807 0.000172541)
(0.000391925 -0.102047 8.80869e-05)
(0.00106396 -0.0939363 0.000468353)
(0.000167764 -0.0954688 0.000102294)
(0.00102443 -0.0937429 0.000466437)
(0.000170841 -0.0955775 9.72485e-05)
(0.000431723 -0.102518 1.64933e-05)
(0.000431862 -0.102517 -1.65302e-05)
(0.000416359 -0.10272 1.46894e-05)
(0.000416322 -0.102719 -1.47223e-05)
(0.000228872 -0.0977655 1.53528e-05)
(0.000229 -0.0977646 -1.59568e-05)
(0.000226462 -0.098054 1.39982e-05)
(0.000226464 -0.0980525 -1.37518e-05)
(0.000412818 -0.101922 -9.23775e-05)
(0.000346164 -0.10177 -0.000173785)
(0.000391822 -0.102045 -8.82779e-05)
(0.000301749 -0.101805 -0.000172402)
(0.000167653 -0.0954663 -0.000101106)
(0.00106401 -0.0939339 -0.000468129)
(0.000170538 -0.0955748 -9.74722e-05)
(0.00102477 -0.0937408 -0.000466869)
(-0.00590913 -0.103032 0.000225971)
(0.00561992 -0.105108 0.492696)
(-0.00597601 -0.103137 0.000213645)
(0.00562287 -0.105559 0.492737)
(-0.00283236 -0.0962136 0.000577504)
(0.00236922 -0.101464 0.500265)
(-0.00288986 -0.0960484 0.000565056)
(0.00239419 -0.102239 0.500276)
(0.00561736 -0.104228 -0.49256)
(-0.00578082 -0.102709 -0.000246366)
(0.00561376 -0.104665 -0.492595)
(-0.0058415 -0.102889 -0.000236695)
(0.00231458 -0.100057 -0.500237)
(-0.00271858 -0.0962975 -0.000598968)
(0.00233218 -0.100738 -0.500245)
(-0.00276647 -0.0962942 -0.000588212)
(0.000439945 -0.101602 0.000174652)
(0.000463358 -0.101622 9.91506e-05)
(0.000392625 -0.101704 0.000174393)
(0.000436718 -0.101782 9.59251e-05)
(0.00113965 -0.0941727 0.000469222)
(0.000170236 -0.0952232 0.000109673)
(0.00110253 -0.0940786 0.000468562)
(0.000167482 -0.0953513 0.000104424)
(0.00046622 -0.10208 1.95872e-05)
(0.000466534 -0.102079 -1.96514e-05)
(0.000448357 -0.102305 1.81807e-05)
(0.000448053 -0.102305 -1.81159e-05)
(0.000232531 -0.0971781 1.82326e-05)
(0.000232817 -0.0971771 -1.92203e-05)
(0.000230556 -0.0974734 1.77262e-05)
(0.000230244 -0.097472 -1.68164e-05)
(0.000463374 -0.10162 -9.90414e-05)
(0.000439376 -0.101601 -0.000174563)
(0.000436633 -0.101781 -9.61187e-05)
(0.000392996 -0.101702 -0.000174552)
(0.000170084 -0.0952211 -0.000107458)
(0.00113954 -0.0941711 -0.000468938)
(0.000167264 -0.095349 -0.000106397)
(0.00110328 -0.0940771 -0.000469393)
(-0.00578294 -0.102707 0.000246428)
(0.00561945 -0.104228 0.492556)
(-0.00584332 -0.102887 0.000236905)
(0.00561594 -0.104665 0.492591)
(-0.00272175 -0.0962973 0.000598102)
(0.00231641 -0.100059 0.500235)
(-0.00276944 -0.0962938 0.000589532)
(0.00233405 -0.10074 0.500245)
(0.0056341 -0.103355 -0.492423)
(-0.00566537 -0.102249 -0.000262184)
(0.00562139 -0.103793 -0.492458)
(-0.00572115 -0.102494 -0.000254696)
(0.00227901 -0.0987911 -0.500209)
(-0.00262939 -0.0961238 -0.000614847)
(0.0022879 -0.0994112 -0.500217)
(-0.00266789 -0.0962408 -0.000606223)
(0.000539706 -0.1013 0.000173763)
(0.000526876 -0.101237 0.000103838)
(0.000489012 -0.101468 0.000174244)
(0.000493513 -0.10144 0.000101534)
(0.00121077 -0.0942157 0.000467802)
(0.000184052 -0.0949194 0.000114275)
(0.00117562 -0.0942185 0.000468329)
(0.000175885 -0.0950795 0.000109897)
(0.000510062 -0.101583 2.2055e-05)
(0.00051032 -0.101582 -2.20871e-05)
(0.00048716 -0.101839 2.09426e-05)
(0.000486743 -0.101839 -2.09037e-05)
(0.000239764 -0.0965694 2.08408e-05)
(0.000239999 -0.0965682 -2.14935e-05)
(0.000235995 -0.0968766 2.04857e-05)
(0.000235567 -0.0968757 -1.95587e-05)
(0.000526835 -0.101235 -0.000103757)
(0.000539288 -0.101299 -0.000173721)
(0.000493542 -0.101439 -0.000101793)
(0.000489541 -0.101466 -0.000174411)
(0.000183845 -0.0949178 -0.000112518)
(0.00121081 -0.0942152 -0.000467815)
(0.000175761 -0.0950777 -0.000112513)
(0.0011765 -0.0942172 -0.000469012)
(-0.00566747 -0.102248 0.000262273)
(0.00563617 -0.103355 0.492418)
(-0.00572293 -0.102493 0.000254941)
(0.00562355 -0.103793 0.492453)
(-0.0026325 -0.096124 0.000614262)
(0.00228083 -0.0987928 0.500207)
(-0.00267078 -0.0962408 0.000607825)
(0.00228974 -0.0994131 0.500217)
(0.00566934 -0.10246 -0.492284)
(-0.00555334 -0.101669 -0.00027434)
(0.00564738 -0.102912 -0.492316)
(-0.00560815 -0.101974 -0.000268614)
(0.00225895 -0.0976027 -0.500181)
(-0.00255174 -0.0957468 -0.000626435)
(0.00226034 -0.0981904 -0.500189)
(-0.00258347 -0.095958 -0.000620621)
(0.000643972 -0.100868 0.000171925)
(0.000603472 -0.100757 0.000106898)
(0.000591557 -0.1011 0.000172894)
(0.00056363 -0.101009 0.000105471)
(0.00127694 -0.0940773 0.000465447)
(0.000207531 -0.0945371 0.00011666)
(0.00124357 -0.0941707 0.000466543)
(0.000194604 -0.094739 0.000114797)
(0.000566285 -0.101015 2.39103e-05)
(0.000566284 -0.101014 -2.39228e-05)
(0.000536641 -0.101309 2.30707e-05)
(0.000536502 -0.101308 -2.30568e-05)
(0.000252024 -0.0959232 2.29732e-05)
(0.000252004 -0.0959223 -2.30559e-05)
(0.000245269 -0.0962512 2.23102e-05)
(0.000245117 -0.0962506 -2.20117e-05)
(0.000603483 -0.100756 -0.000106953)
(0.000643939 -0.100867 -0.000171959)
(0.000563631 -0.101008 -0.00010558)
(0.000591691 -0.101099 -0.000172952)
(0.000207373 -0.0945358 -0.000116579)
(0.00127734 -0.0940769 -0.000465671)
(0.00019444 -0.0947375 -0.000115566)
(0.00124411 -0.0941695 -0.000466922)
(-0.00555532 -0.101668 0.000274501)
(0.00567142 -0.10246 0.492279)
(-0.0056101 -0.101973 0.000268803)
(0.00564944 -0.102912 0.492312)
(-0.0025547 -0.0957472 0.000626688)
(0.00226078 -0.097604 0.50018)
(-0.00258644 -0.0959581 0.000621319)
(0.0022621 -0.0981918 0.500188)
(0.00572332 -0.10152 -0.492146)
(-0.00543887 -0.100972 -0.000283718)
(0.00569209 -0.101997 -0.492176)
(-0.00549538 -0.101335 -0.000279323)
(0.00225233 -0.0964431 -0.500155)
(-0.00248163 -0.0952019 -0.000635396)
(0.00224715 -0.0970218 -0.500162)
(-0.00250993 -0.0954936 -0.000631203)
(0.000751852 -0.100306 0.000169673)
(0.000692454 -0.100173 0.000108812)
(0.000697804 -0.100603 0.000170831)
(0.000646501 -0.100479 0.000107978)
(0.00134003 -0.0937637 0.000462493)
(0.000238894 -0.0940585 0.000118559)
(0.00130947 -0.0939416 0.000464002)
(0.000222329 -0.0943104 0.000117689)
(0.000635987 -0.100363 2.52261e-05)
(0.00063596 -0.100362 -2.52391e-05)
(0.000599413 -0.1007 2.46283e-05)
(0.000599382 -0.1007 -2.46387e-05)
(0.000270203 -0.0952224 2.43369e-05)
(0.000270154 -0.0952217 -2.43495e-05)
(0.000260316 -0.0955801 2.374e-05)
(0.000260266 -0.0955794 -2.3735e-05)
(0.000692474 -0.100172 -0.00010888)
(0.000751863 -0.100305 -0.000169711)
(0.000646513 -0.100477 -0.000108046)
(0.000697812 -0.100602 -0.000170869)
(0.000238743 -0.0940576 -0.000118634)
(0.00134048 -0.0937635 -0.000462747)
(0.000222171 -0.0943093 -0.000117792)
(0.00130991 -0.0939412 -0.000464264)
(-0.00544084 -0.100971 0.00028389)
(0.00572537 -0.101519 0.492141)
(-0.00549736 -0.101334 0.000279493)
(0.0056941 -0.101996 0.492171)
(-0.00248455 -0.0952024 0.000635736)
(0.00225412 -0.096444 0.500154)
(-0.0025129 -0.095494 0.000631557)
(0.00224886 -0.0970229 0.500161)
(0.00579523 -0.100512 -0.492001)
(-0.0053181 -0.100158 -0.000290913)
(0.00575515 -0.101025 -0.492034)
(-0.00537817 -0.10058 -0.000287542)
(0.00225644 -0.0952736 -0.500129)
(-0.00241466 -0.0945085 -0.000642063)
(0.00224609 -0.0958614 -0.500136)
(-0.00244175 -0.0948727 -0.000638974)
(0.00086497 -0.0996121 0.000167272)
(0.000794016 -0.0994743 0.000109819)
(0.000808066 -0.0999755 0.000168477)
(0.000741689 -0.0998385 0.000109408)
(0.00140064 -0.0932838 0.000459282)
(0.000277036 -0.0934692 0.000119595)
(0.00137109 -0.0935438 0.0004609)
(0.000257158 -0.0937781 0.000119175)
(0.000719605 -0.0996125 2.61058e-05)
(0.000719571 -0.0996121 -2.61217e-05)
(0.000676056 -0.1 2.57122e-05)
(0.000676026 -0.0999999 -2.57266e-05)
(0.000294701 -0.0944501 2.52405e-05)
(0.000294645 -0.0944496 -2.52539e-05)
(0.000281623 -0.0948456 2.48356e-05)
(0.00028157 -0.094845 -2.48475e-05)
(0.00079405 -0.0994734 -0.000109889)
(0.000864991 -0.0996111 -0.000167309)
(0.000741715 -0.0998375 -0.000109476)
(0.000808079 -0.0999745 -0.000168515)
(0.000276899 -0.0934686 -0.000119675)
(0.0014011 -0.0932839 -0.000459535)
(0.000257013 -0.0937773 -0.000119254)
(0.00137155 -0.0935438 -0.000461154)
(-0.00532008 -0.100157 0.00029109)
(0.00579724 -0.100512 0.491996)
(-0.00538016 -0.100579 0.000287717)
(0.00575712 -0.101025 0.492029)
(-0.00241756 -0.0945091 0.000642409)
(0.0022582 -0.0952743 0.500128)
(-0.00244469 -0.0948733 0.000639319)
(0.00224777 -0.0958621 0.500135)
(0.00588487 -0.0994194 -0.491856)
(-0.00518817 -0.0992227 -0.000296403)
(0.00583597 -0.0999775 -0.491888)
(-0.00525319 -0.099706 -0.000293832)
(0.00227042 -0.0940632 -0.500103)
(-0.00234861 -0.0936758 -0.000646897)
(0.00225526 -0.0946751 -0.50011)
(-0.00237549 -0.0941091 -0.000644672)
(0.000985276 -0.098783 0.000164883)
(0.000908227 -0.0986506 0.000110162)
(0.000924509 -0.0992147 0.000166069)
(0.000849747 -0.0990786 0.000110055)
(0.0014601 -0.092643 0.000455981)
(0.00032121 -0.0927567 0.000119942)
(0.00143098 -0.092983 0.000457628)
(0.00029844 -0.0931287 0.00011984)
(0.000817767 -0.0987528 2.66701e-05)
(0.000817732 -0.0987524 -2.66883e-05)
(0.000766663 -0.0991971 2.64183e-05)
(0.000766628 -0.0991967 -2.64353e-05)
(0.000325767 -0.09359 2.5823e-05)
(0.000325708 -0.0935896 -2.58387e-05)
(0.000309334 -0.0940315 2.55652e-05)
(0.000309276 -0.094031 -2.55798e-05)
(0.000908271 -0.0986499 -0.000110232)
(0.000985303 -0.0987822 -0.000164918)
(0.000849787 -0.0990777 -0.000110125)
(0.000924529 -0.0992138 -0.000166105)
(0.000321088 -0.0927564 -0.000120022)
(0.00146059 -0.0926434 -0.000456232)
(0.00029831 -0.0931282 -0.00011992)
(0.00143145 -0.0929833 -0.00045788)
(-0.00519017 -0.0992219 0.000296584)
(0.00588684 -0.0994187 0.491851)
(-0.0052552 -0.0997052 0.000294012)
(0.0058379 -0.0999768 0.491883)
(-0.00235147 -0.0936766 0.000647247)
(0.00227216 -0.0940637 0.500102)
(-0.0023784 -0.0941098 0.00064502)
(0.00225691 -0.0946756 0.500109)
(0.00599189 -0.0982243 -0.491708)
(-0.00504646 -0.0981586 -0.000300547)
(0.00593438 -0.0988356 -0.49174)
(-0.00511763 -0.0987071 -0.000298609)
(0.00229297 -0.0927854 -0.500078)
(-0.00228159 -0.0927063 -0.000650269)
(0.00227359 -0.093434 -0.500084)
(-0.002309 -0.093208 -0.000648735)
(0.00111451 -0.0978129 0.000162591)
(0.00103419 -0.0976927 0.00011002)
(0.0010491 -0.0983159 0.000163718)
(0.000969749 -0.0981889 0.000110137)
(0.00151968 -0.0918431 0.000452689)
(0.000370502 -0.0919105 0.00011978)
(0.00149037 -0.0922626 0.000454322)
(0.000345235 -0.0923505 0.000119913)
(0.000932121 -0.0977698 2.69996e-05)
(0.000932089 -0.0977695 -2.70199e-05)
(0.00087291 -0.0982774 2.68599e-05)
(0.000872877 -0.0982771 -2.68792e-05)
(0.000363899 -0.0926254 2.61633e-05)
(0.000363841 -0.0926251 -2.61808e-05)
(0.000343906 -0.0931212 2.60198e-05)
(0.000343847 -0.0931209 -2.60364e-05)
(0.00103424 -0.0976921 -0.000110091)
(0.00111454 -0.0978122 -0.000162625)
(0.000969796 -0.0981882 -0.000110207)
(0.00104913 -0.0983151 -0.000163753)
(0.000370391 -0.0919105 -0.000119861)
(0.00152018 -0.0918438 -0.000452938)
(0.000345118 -0.0923503 -0.000119994)
(0.00149087 -0.0922631 -0.000454572)
(-0.00504847 -0.098158 0.000300731)
(0.00599384 -0.0982236 0.491703)
(-0.00511966 -0.0987064 0.000298792)
(0.00593629 -0.0988349 0.491735)
(-0.00228442 -0.0927072 0.000650621)
(0.0022947 -0.0927857 0.500077)
(-0.00231188 -0.0932088 0.000649086)
(0.00227523 -0.0934344 0.500083)
(0.00611574 -0.0969115 -0.491558)
(-0.00489256 -0.0969577 -0.000303617)
(0.00604993 -0.0975834 -0.49159)
(-0.00496973 -0.0975756 -0.000302186)
(0.00232328 -0.091418 -0.500053)
(-0.00221344 -0.0915989 -0.000652455)
(0.00230006 -0.0921139 -0.500058)
(-0.00224137 -0.0921696 -0.000651484)
(0.00125376 -0.0966952 0.000160461)
(0.0011727 -0.0965913 0.000109519)
(0.00118322 -0.0972728 0.0001615)
(0.00110188 -0.0971604 0.000109801)
(0.00158014 -0.0908839 0.000449467)
(0.000424693 -0.0909215 0.00011924)
(0.00155031 -0.0913832 0.00045106)
(0.000396976 -0.091434 0.000119549)
(0.00106254 -0.0966507 2.71371e-05)
(0.00106251 -0.0966504 -2.7159e-05)
(0.000995306 -0.0972279 2.7088e-05)
(0.000995275 -0.0972276 -2.71092e-05)
(0.000409057 -0.0915403 2.63102e-05)
(0.000409 -0.0915402 -2.63292e-05)
(0.000385565 -0.0920983 2.62579e-05)
(0.000385507 -0.0920981 -2.62762e-05)
(0.00117276 -0.0965908 -0.00010959)
(0.0012538 -0.0966946 -0.000160494)
(0.00110193 -0.0971598 -0.000109873)
(0.00118324 -0.0972721 -0.000161534)
(0.000424594 -0.0909217 -0.000119321)
(0.00158066 -0.0908847 -0.000449714)
(0.000396871 -0.0914341 -0.00011963)
(0.00155082 -0.0913839 -0.000451308)
(-0.00489459 -0.0969572 0.000303803)
(0.00611766 -0.0969108 0.491553)
(-0.00497176 -0.097575 0.000302371)
(0.0060518 -0.0975827 0.491585)
(-0.00221622 -0.0915999 0.000652808)
(0.002325 -0.0914182 0.500052)
(-0.0022442 -0.0921706 0.000651837)
(0.00230169 -0.0921141 0.500057)
(0.00625659 -0.095467 -0.491403)
(-0.0047241 -0.095613 -0.000305812)
(0.00618217 -0.0962064 -0.491434)
(-0.00480922 -0.0963038 -0.000304795)
(0.00236049 -0.0899423 -0.500027)
(-0.00214288 -0.0903517 -0.000653657)
(0.00233374 -0.0906945 -0.500033)
(-0.00217205 -0.0909929 -0.000653156)
(0.00140457 -0.0954232 0.000158521)
(0.00132446 -0.0953371 0.000108755)
(0.00132801 -0.0960788 0.000159464)
(0.00124694 -0.0959837 0.000109158)
(0.00164203 -0.0897635 0.000446337)
(0.000483703 -0.0897808 0.00011842)
(0.00161148 -0.0903437 0.000447883)
(0.000453591 -0.0903702 0.000118859)
(0.00120895 -0.0953837 2.71221e-05)
(0.00120892 -0.0953835 -2.71454e-05)
(0.00113372 -0.0960362 2.71447e-05)
(0.0011337 -0.096036 -2.71674e-05)
(0.000461032 -0.0903203 2.63033e-05)
(0.000460979 -0.0903203 -2.63233e-05)
(0.000434151 -0.0909474 2.63235e-05)
(0.000434096 -0.0909474 -2.6343e-05)
(0.00132452 -0.0953367 -0.000108826)
(0.0014046 -0.0954228 -0.000158553)
(0.001247 -0.0959833 -0.000109229)
(0.00132804 -0.0960783 -0.000159496)
(0.000483615 -0.0897813 -0.000118501)
(0.00164257 -0.0897645 -0.000446582)
(0.000453498 -0.0903705 -0.00011894)
(0.001612 -0.0903447 -0.000448128)
(-0.00472617 -0.0956126 0.000306)
(0.00625848 -0.0954663 0.491398)
(-0.00481128 -0.0963033 0.000304982)
(0.00618402 -0.0962057 0.491429)
(-0.00214562 -0.0903527 0.000654011)
(0.00236221 -0.0899424 0.500027)
(-0.00217484 -0.0909939 0.00065351)
(0.00233537 -0.0906947 0.500032)
(0.0064149 -0.0938772 -0.491247)
(-0.0045375 -0.0941146 -0.000307281)
(0.00633181 -0.0946909 -0.491278)
(-0.00463199 -0.0948834 -0.000306611)
(0.00240417 -0.0883409 -0.500002)
(-0.0020693 -0.0889581 -0.000654027)
(0.00237433 -0.0891581 -0.500007)
(-0.0021001 -0.0896734 -0.000653926)
(0.00156822 -0.0939889 0.000156774)
(0.00148991 -0.0939204 0.0001078)
(0.00148511 -0.0947267 0.00015762)
(0.0014055 -0.0946495 0.000108292)
(0.00170551 -0.0884782 0.000443296)
(0.000547435 -0.0884798 0.000117387)
(0.00167412 -0.0891414 0.000444799)
(0.000514959 -0.0891504 0.000117925)
(0.00137123 -0.0939574 2.69859e-05)
(0.0013712 -0.0939573 -2.70101e-05)
(0.00128808 -0.094691 2.70658e-05)
(0.00128805 -0.0946908 -2.70896e-05)
(0.000519616 -0.0889518 2.61732e-05)
(0.000519567 -0.0889519 -2.61939e-05)
(0.000489448 -0.0896548 2.62517e-05)
(0.000489396 -0.0896548 -2.62721e-05)
(0.00148998 -0.0939201 -0.00010787)
(0.00156825 -0.0939887 -0.000156804)
(0.00140556 -0.0946491 -0.000108362)
(0.00148514 -0.0947263 -0.000157651)
(0.000547358 -0.0884805 -0.000117468)
(0.00170606 -0.0884794 -0.000443538)
(0.000514876 -0.089151 -0.000118006)
(0.00167466 -0.0891425 -0.000445042)
(-0.0045396 -0.0941142 0.000307469)
(0.00641676 -0.0938766 0.491242)
(-0.00463409 -0.094883 0.000306799)
(0.00633364 -0.0946903 0.491273)
(-0.00207199 -0.0889593 0.000654381)
(0.00240589 -0.088341 0.500001)
(-0.00210284 -0.0896745 0.000654281)
(0.00237595 -0.0891581 0.500006)
(0.00659022 -0.0921302 -0.491087)
(-0.00433072 -0.0924537 -0.000308129)
(0.0064987 -0.093024 -0.491118)
(-0.00443563 -0.0933049 -0.000307757)
(0.00245374 -0.0865987 -0.499977)
(-0.00199095 -0.0874102 -0.000653672)
(0.00242092 -0.087488 -0.499982)
(-0.00202432 -0.0882038 -0.000653922)
(0.0017452 -0.0923848 0.000155213)
(0.0016692 -0.0923324 0.000106699)
(0.00165539 -0.0932085 0.000155967)
(0.00157787 -0.0931482 0.000107259)
(0.00177096 -0.0870238 0.00044033)
(0.000615843 -0.0870104 0.000116188)
(0.00173856 -0.0877721 0.000441797)
(0.00058103 -0.0877662 0.000116805)
(0.0015491 -0.0923614 2.67517e-05)
(0.00154908 -0.0923613 -2.67769e-05)
(0.0014582 -0.0931811 2.6878e-05)
(0.00145818 -0.093181 -2.69027e-05)