/*--------------------------------*- C++ -*----------------------------------*\
  =========                 |
  \\      /  F ield         | OpenFOAM: The Open Source CFD Toolbox
   \\    /   O peration     | Website:  https://openfoam.org
    \\  /    A nd           | Version:  9
     \\/     M anipulation  |
\*---------------------------------------------------------------------------*/
FoamFile
{
    format      ascii;
    class       surfaceScalarField;
    location    "1.85";
    object      phi;
}
// * * * * * * * * * * * * * * * * * * * * * * * * * * * * * * * * * * * * * //

dimensions      [0 3 -1 0 0 0 0];

internalField   nonuniform List<scalar> 
104044
(
3.70545e-07
-6.53015e-05
-2.50294e-07
6.42913e-05
8.89912e-07
-4.60627e-05
-3.14049e-06
-1.32843e-07
4.87268e-05
9.79788e-07
1.80584e-07
-5.2935e-07
8.71271e-07
-2.79304e-06
-7.06623e-08
7.60244e-07
1.79436e-08
-6.67453e-05
6.64771e-05
-4.61295e-05
2.58724e-09
4.30044e-05
5.20949e-08
-2.53619e-08
-8.41527e-09
-5.27112e-05
-1.84141e-06
5.32039e-05
1.22434e-06
-5.51322e-05
-5.87305e-07
-6.05792e-11
5.55506e-05
1.60586e-07
-3.38517e-09
-1.49377e-06
6.38352e-07
-1.02394e-06
-1.08158e-10
1.91588e-07
-9.10685e-09
-5.66515e-05
5.48218e-05
-5.65052e-05
-2.34825e-09
5.59111e-05
-5.05405e-09
-5.3695e-10
-1.23377e-12
-5.5796e-05
-6.27807e-07
5.62814e-05
1.42269e-07
-5.57957e-05
-6.27839e-07
5.83515e-11
5.62811e-05
1.42307e-07
-6.58981e-13
-1.07718e-06
2.2039e-07
-1.07719e-06
1.07664e-10
2.20401e-07
-1.87501e-12
-5.58739e-05
5.52437e-05
-5.58734e-05
2.34635e-09
5.52432e-05
-3.9578e-13
5.35805e-10
8.41138e-09
-5.51312e-05
-5.87231e-07
5.55495e-05
1.60593e-07
-5.27089e-05
-1.84161e-06
1.32829e-07
5.32015e-05
1.22455e-06
3.38477e-09
-1.02394e-06
1.91615e-07
-1.49382e-06
7.0656e-08
6.38483e-07
9.09794e-09
-5.65038e-05
5.59098e-05
-5.66487e-05
-2.60112e-09
5.48188e-05
5.05262e-09
2.53599e-08
-3.70592e-07
-4.60602e-05
-3.14071e-06
4.87249e-05
9.79443e-07
-6.5305e-05
-2.50383e-07
6.42947e-05
8.90055e-07
-1.80615e-07
-2.79351e-06
7.60343e-07
-5.29819e-07
8.71848e-07
-1.78755e-08
-4.61249e-05
4.29995e-05
-6.67531e-05
6.64849e-05
-5.20762e-08
3.71332e-07
-6.3219e-05
-1.13495e-06
6.22038e-05
1.77875e-06
-5.06699e-05
3.20537e-07
-1.04549e-07
5.16856e-05
-8.60331e-07
3.92968e-07
-7.34571e-07
1.41393e-06
-1.49217e-06
-1.2532e-07
6.73026e-08
-1.80777e-07
-6.58101e-05
6.48559e-05
-4.13822e-05
1.33481e-07
4.13885e-05
-6.75693e-08
6.23644e-08
-1.54238e-08
-5.36987e-05
-1.91746e-06
5.39413e-05
1.58575e-06
-5.58118e-05
-8.24758e-07
-3.50941e-09
5.58888e-05
7.35843e-07
-1.16168e-08
-2.28372e-06
1.67518e-06
-7.74774e-07
-1.81087e-09
5.03764e-07
-1.073e-08
-5.2609e-05
5.08358e-05
-5.51343e-05
-8.3901e-09
5.43072e-05
-8.57447e-09
-6.57814e-09
-1.99479e-12
-5.67297e-05
-3.26418e-07
5.69462e-05
1.06416e-07
-5.67294e-05
-3.26325e-07
3.50035e-09
5.69459e-05
1.06301e-07
-1.50919e-12
-5.1541e-07
6.53397e-08
-5.15404e-07
1.80725e-09
6.53397e-08
-2.70323e-12
-5.47217e-05
5.43869e-05
-5.47213e-05
8.39147e-09
5.43865e-05
-3.07316e-12
6.57791e-09
1.54026e-08
-5.58106e-05
-8.24703e-07
5.58875e-05
7.3589e-07
-5.36964e-05
-1.91766e-06
1.04512e-07
5.39392e-05
1.58583e-06
1.16059e-08
-7.74666e-07
5.03749e-07
-2.28401e-06
1.25293e-07
1.67539e-06
1.07119e-08
-5.51331e-05
5.43061e-05
-5.26058e-05
-1.33561e-07
5.08324e-05
8.56305e-09
-6.24134e-08
-3.71305e-07
-5.06685e-05
3.21296e-07
5.16844e-05
-8.61304e-07
-6.32222e-05
-1.13542e-06
6.22069e-05
1.77939e-06
-3.92981e-07
-1.49175e-06
6.63607e-08
-7.34854e-07
1.41436e-06
1.81008e-07
-4.13776e-05
4.13843e-05
-6.58177e-05
6.48633e-05
6.77081e-08
2.3539e-07
-6.13439e-05
-1.56094e-06
6.05998e-05
2.06962e-06
-5.23733e-05
1.84005e-06
-2.68561e-08
5.29126e-05
-2.11703e-06
3.08365e-07
-1.4092e-06
1.9608e-06
1.26985e-06
-6.69025e-08
-1.58231e-06
-4.37047e-07
-6.37529e-05
6.2629e-05
-4.21459e-05
2.76793e-07
4.32721e-05
-3.06186e-07
2.06313e-07
-1.17955e-08
-5.39775e-05
-9.0306e-07
5.39562e-05
9.09259e-07
-5.58584e-05
-4.76942e-07
-1.07127e-08
5.57591e-05
5.7518e-07
-1.47874e-08
-1.32886e-06
1.24053e-06
-6.77379e-07
-5.22053e-09
6.98195e-07
-5.99215e-09
-4.97231e-05
4.91028e-05
-5.36301e-05
-1.21088e-08
5.31593e-05
-9.83134e-09
-1.01395e-08
-1.96237e-11
-5.69313e-05
-6.76692e-08
5.68128e-05
1.75555e-07
-5.6931e-05
-6.75591e-08
1.07842e-08
5.68123e-05
1.75428e-07
3.95374e-12
-1.66494e-07
1.76113e-07
-1.66367e-07
5.17516e-09
1.76102e-07
7.14005e-12
-5.42103e-05
5.41305e-05
-5.421e-05
1.21206e-08
5.41304e-05
3.67726e-14
1.01398e-08
1.18316e-08
-5.58571e-05
-4.77017e-07
5.57577e-05
5.75331e-07
-5.39755e-05
-9.03116e-07
2.67779e-08
5.39543e-05
9.09352e-07
1.4568e-08
-6.77372e-07
6.98383e-07
-1.32895e-06
6.68207e-08
1.24035e-06
5.97075e-09
-5.36291e-05
5.31582e-05
-4.97197e-05
-2.76936e-07
4.90995e-05
9.81604e-09
-2.06426e-07
-2.35295e-07
-5.23722e-05
1.84107e-06
5.29116e-05
-2.11831e-06
-6.13468e-05
-1.56176e-06
6.06026e-05
2.07075e-06
-3.08297e-07
1.27079e-06
-1.58354e-06
-1.40984e-06
1.96164e-06
4.37478e-07
-4.21422e-05
4.32689e-05
-6.376e-05
6.26357e-05
3.06513e-07
7.73789e-08
-5.99668e-05
-1.6684e-06
5.94131e-05
2.14471e-06
-5.33639e-05
2.24091e-06
5.14978e-08
5.37562e-05
-2.60732e-06
1.53522e-07
-1.61541e-06
2.09489e-06
2.10538e-06
1.08908e-08
-2.41411e-06
-6.58939e-07
-6.15628e-05
6.05534e-05
-4.44973e-05
3.80029e-07
4.56992e-05
-5.49226e-07
3.3097e-07
3.57414e-10
-5.3951e-05
-4.39813e-07
5.39807e-05
4.61284e-07
-5.5637e-05
-2.25495e-07
-1.41886e-08
5.55275e-05
3.49531e-07
-1.07383e-08
-6.07938e-07
6.3476e-07
-3.12333e-07
-1.34447e-08
4.3712e-07
9.33775e-09
-4.88251e-05
4.8756e-05
-5.28608e-05
-1.29768e-08
5.26576e-05
7.05876e-10
-1.30834e-08
1.49066e-12
-5.66755e-05
1.67735e-08
5.65406e-05
1.03912e-07
-5.6675e-05
1.67597e-08
1.41778e-08
5.65401e-05
1.03969e-07
7.0182e-12
-1.02841e-08
1.34122e-07
-1.02537e-08
1.34511e-08
1.3416e-07
1.1542e-12
-5.41071e-05
5.41109e-05
-5.4107e-05
1.29597e-08
5.41108e-05
4.75421e-12
1.30807e-08
-4.08358e-10
-5.56357e-05
-2.25605e-07
5.55262e-05
3.49664e-07
-5.39492e-05
-4.39768e-07
-5.16664e-08
5.39791e-05
4.61192e-07
1.06895e-08
-3.12424e-07
4.37248e-07
-6.07953e-07
-1.09461e-08
6.34684e-07
-9.39304e-09
-5.28596e-05
5.26563e-05
-4.88219e-05
-3.80224e-07
4.8753e-05
-7.44416e-10
-3.31138e-07
-7.71919e-08
-5.3363e-05
2.24206e-06
5.37554e-05
-2.60888e-06
-5.99694e-05
-1.6695e-06
5.94155e-05
2.1462e-06
-1.53371e-07
2.10648e-06
-2.41554e-06
-1.61638e-06
2.0962e-06
6.59559e-07
-4.44944e-05
4.56967e-05
-6.15691e-05
6.05591e-05
5.49749e-07
-5.90379e-08
-5.89342e-05
-1.68979e-06
5.85055e-05
2.17748e-06
-5.40836e-05
2.2074e-06
1.1502e-07
5.43613e-05
-2.65918e-06
5.48604e-09
-1.67115e-06
2.14459e-06
2.2296e-06
9.0877e-08
-2.64238e-06
-8.22871e-07
-5.96229e-05
5.8756e-05
-4.6778e-05
4.38487e-07
4.7724e-05
-7.40694e-07
4.10132e-07
1.73683e-08
-5.40439e-05
-2.78243e-07
5.41241e-05
2.95727e-07
-5.54387e-05
-1.72431e-07
-9.90344e-09
5.53649e-05
2.73457e-07
1.002e-08
-3.31726e-07
3.49373e-07
-1.83149e-07
-1.27769e-08
2.9479e-07
2.88427e-08
-4.88156e-05
4.8947e-05
-5.25042e-05
-9.88785e-09
5.23705e-05
1.87862e-08
-1.09931e-08
-2.93038e-12
-5.64243e-05
-1.71355e-08
5.63188e-05
1.12786e-07
-5.64238e-05
-1.71691e-08
9.88795e-09
5.63182e-05
1.12844e-07
4.14411e-12
6.46601e-09
9.70173e-08
6.42957e-09
1.27678e-08
9.70797e-08
-2.69908e-12
-5.41064e-05
5.40794e-05
-5.41063e-05
9.87328e-09
5.40792e-05
-4.42503e-13
1.09608e-08
-1.74216e-08
-5.54373e-05
-1.72536e-07
5.53636e-05
2.73573e-07
-5.40424e-05
-2.78192e-07
-1.1509e-07
5.41227e-05
2.95587e-07
-1.0018e-08
-1.83266e-07
2.94905e-07
-3.31677e-07
-9.09404e-08
3.49269e-07
-2.89213e-08
-5.25029e-05
5.23692e-05
-4.88128e-05
-4.38716e-07
4.89444e-05
-1.88578e-08
-4.10344e-07
5.9286e-08
-5.40829e-05
2.20876e-06
5.43607e-05
-2.66095e-06
-5.89363e-05
-1.69105e-06
5.85075e-05
2.17921e-06
-5.26633e-09
2.23086e-06
-2.64403e-06
-1.67233e-06
2.14621e-06
8.23647e-07
-4.67758e-05
4.77222e-05
-5.96282e-05
5.87608e-05
7.41389e-07
-1.64603e-07
-5.81253e-05
-1.66241e-06
5.77766e-05
2.17565e-06
-5.45831e-05
2.06087e-06
1.4113e-07
5.47571e-05
-2.54056e-06
-1.14527e-07
-1.66517e-06
2.15995e-06
2.11893e-06
1.29456e-07
-2.58467e-06
-9.34434e-07
-5.79664e-05
5.72384e-05
-4.85175e-05
4.6395e-07
4.918e-05
-8.75556e-07
4.4993e-07
3.15407e-08
-5.4208e-05
-2.3775e-07
5.42886e-05
2.66778e-07
-5.53041e-05
-1.73083e-07
-6.78109e-09
5.52493e-05
2.6622e-07
2.43257e-08
-2.46848e-07
2.68057e-07
-1.69297e-07
-8.44284e-09
2.62856e-07
4.72896e-08
-4.91121e-05
4.9291e-05
-5.22478e-05
-7.01134e-09
5.2129e-05
3.80098e-08
-8.57362e-09
-5.04225e-12
-5.62209e-05
-7.84087e-08
5.61262e-05
1.66316e-07
-5.62203e-05
-7.8439e-08
6.75794e-09
5.61257e-05
1.66356e-07
-4.1463e-12
-4.73613e-08
1.36818e-07
-4.73957e-08
8.42356e-09
1.36868e-07
-4.81134e-12
-5.40234e-05
5.3938e-05
-5.40233e-05
6.98853e-09
5.39379e-05
-3.89078e-12
8.55484e-09
-3.16096e-08
-5.53028e-05
-1.73158e-07
5.52481e-05
2.66307e-07
-5.42067e-05
-2.37686e-07
-1.41188e-07
5.42874e-05
2.66604e-07
-2.43835e-08
-1.69386e-07
2.62955e-07
-2.46788e-07
-1.29518e-07
2.67898e-07
-4.7385e-08
-5.22464e-05
5.21276e-05
-4.91097e-05
-4.64191e-07
4.92888e-05
-3.80964e-08
-4.50165e-07
1.64912e-07
-5.45826e-05
2.06235e-06
5.47566e-05
-2.5425e-06
-5.8127e-05
-1.66375e-06
5.77781e-05
2.17751e-06
1.14802e-07
2.12035e-06
-2.58652e-06
-1.66646e-06
2.16174e-06
9.35331e-07
-4.8516e-05
4.91789e-05
-5.79707e-05
5.72423e-05
8.76388e-07
-2.40817e-07
-5.74608e-05
-1.60577e-06
5.71654e-05
2.14198e-06
-5.48829e-05
1.90451e-06
1.5007e-07
5.49689e-05
-2.38144e-06
-2.03924e-07
-1.62071e-06
2.14043e-06
1.96184e-06
1.45698e-07
-2.43727e-06
-1.00491e-06
-5.65817e-05
5.59808e-05
-4.97146e-05
4.69176e-07
5.0145e-05
-9.63966e-07
4.63242e-07
4.45007e-08
-5.4358e-05
-2.37963e-07
5.44147e-05
2.86887e-07
-5.5197e-05
-1.74023e-07
-2.54527e-09
5.51428e-05
2.75246e-07
3.77872e-08
-2.3222e-07
2.70674e-07
-1.72433e-07
-4.70718e-09
2.67289e-07
6.23653e-08
-4.94673e-05
4.96361e-05
-5.20163e-05
-2.90809e-09
5.19076e-05
5.47359e-08
-5.00424e-09
-5.7176e-12
-5.60332e-05
-1.20337e-07
5.59371e-05
2.13916e-07
-5.60327e-05
-1.20358e-07
2.51627e-09
5.59366e-05
2.13943e-07
-5.54816e-12
-1.0135e-07
1.89634e-07
-1.01374e-07
4.6811e-09
1.89663e-07
-5.36905e-12
-5.38317e-05
5.37084e-05
-5.38315e-05
2.87997e-09
5.37083e-05
-5.26977e-12
4.97847e-09
-4.45909e-08
-5.51957e-05
-1.74071e-07
5.51416e-05
2.75314e-07
-5.43569e-05
-2.37919e-07
-1.50117e-07
5.44136e-05
2.86701e-07
-3.78658e-08
-1.72494e-07
2.67367e-07
-2.3216e-07
-1.4575e-07
2.70492e-07
-6.24705e-08
-5.2015e-05
5.19062e-05
-4.94653e-05
-4.69478e-07
4.96343e-05
-5.48364e-08
-4.63481e-07
2.41183e-07
-5.48825e-05
1.90604e-06
5.49686e-05
-2.38346e-06
-5.74621e-05
-1.60713e-06
5.71665e-05
2.14389e-06
2.04259e-07
1.96334e-06
-2.43924e-06
-1.62205e-06
2.14231e-06
1.00589e-06
-4.97138e-05
5.01445e-05
-5.65851e-05
5.59839e-05
9.64899e-07
-2.93296e-07
-5.6893e-05
-1.54098e-06
5.66331e-05
2.09417e-06
-5.5017e-05
1.76963e-06
1.48986e-07
5.5034e-05
-2.22892e-06
-2.66966e-07
-1.55969e-06
2.09912e-06
1.81771e-06
1.48956e-07
-2.28169e-06
-1.04639e-06
-5.54397e-05
5.49451e-05
-5.04785e-05
4.69178e-07
5.07325e-05
-1.01859e-06
4.65678e-07
5.65034e-08
-5.44556e-05
-2.56011e-07
5.44809e-05
3.23207e-07
-5.50859e-05
-1.70473e-07
2.13571e-09
5.50241e-05
2.8664e-07
5.00636e-08
-2.42405e-07
3.00319e-07
-1.70891e-07
-2.24609e-10
2.78074e-07
7.35591e-08
-4.97916e-05
4.99313e-05
-5.18051e-05
1.63267e-09
5.17066e-05
6.77719e-08
-6.47037e-10
-4.16533e-12
-5.58385e-05
-1.44232e-07
5.57348e-05
2.50162e-07
-5.5838e-05
-1.44249e-07
-2.16605e-09
5.57343e-05
2.50184e-07
-5.14244e-12
-1.32621e-07
2.30964e-07
-1.32639e-07
1.94508e-10
2.30988e-07
-5.25138e-12
-5.35752e-05
5.34326e-05
-5.3575e-05
-1.66026e-09
5.34324e-05
-4.55271e-12
6.18772e-10
-5.66143e-08
-5.50847e-05
-1.70487e-07
5.5023e-05
2.86692e-07
-5.44547e-05
-2.55998e-07
-1.49017e-07
5.44801e-05
3.23019e-07
-5.01635e-08
-1.70925e-07
2.78135e-07
-2.42374e-07
-1.48995e-07
3.00132e-07
-7.36489e-08
-5.18038e-05
5.17053e-05
-4.97901e-05
-4.69472e-07
4.99299e-05
-6.78754e-08
-4.65976e-07
2.93712e-07
-5.50167e-05
1.77117e-06
5.50338e-05
-2.23096e-06
-5.68939e-05
-1.54233e-06
5.66339e-05
2.09609e-06
2.67355e-07
1.81924e-06
-2.28371e-06
-1.56103e-06
2.10102e-06
1.04743e-06
-5.04782e-05
5.07324e-05
-5.54425e-05
5.49476e-05
1.01959e-06
-3.27608e-07
-5.63887e-05
-1.48118e-06
5.61513e-05
2.04619e-06
-5.50224e-05
1.65668e-06
1.424e-07
5.49863e-05
-2.09053e-06
-3.0923e-07
-1.49574e-06
2.04933e-06
1.6943e-06
1.44693e-07
-2.1367e-06
-1.06726e-06
-5.44977e-05
5.40838e-05
-5.09169e-05
4.61984e-07
5.10443e-05
-1.04827e-06
4.61645e-07
7.20908e-08
-5.44895e-05
-2.85522e-07
5.44794e-05
3.65884e-07
-5.49569e-05
-1.65434e-07
6.7863e-09
5.48834e-05
3.04263e-07
6.20974e-08
-2.66411e-07
3.40477e-07
-1.66337e-07
4.44073e-09
2.91143e-07
7.87993e-08
-5.00494e-05
5.01471e-05
-5.16134e-05
5.74363e-09
5.15211e-05
7.70343e-08
3.83196e-09
-3.06934e-11
-5.56272e-05
-1.59163e-07
5.55133e-05
2.79917e-07
-5.56267e-05
-1.59224e-07
-6.84491e-09
5.55129e-05
2.79931e-07
-8.427e-12
-1.50773e-07
2.62746e-07
-1.50796e-07
-4.47296e-09
2.62769e-07
-1.88729e-10
-5.32857e-05
5.31324e-05
-5.32855e-05
-6.36611e-09
5.31324e-05
-2.95493e-11
-3.88516e-09
-7.23616e-08
-5.49559e-05
-1.65579e-07
5.48826e-05
3.04399e-07
-5.44887e-05
-2.85373e-07
-1.4246e-07
5.44785e-05
3.65678e-07
-6.2212e-08
-1.66336e-07
2.91205e-07
-2.6641e-07
-1.4472e-07
3.40285e-07
-8.04563e-08
-5.16121e-05
5.15206e-05
-5.00484e-05
-4.62795e-07
5.01454e-05
-7.6997e-08
-4.61941e-07
3.28035e-07
-5.50223e-05
1.65825e-06
5.49861e-05
-2.09255e-06
-5.63894e-05
-1.48246e-06
5.61518e-05
2.04806e-06
3.09658e-07
1.69583e-06
-2.13871e-06
-1.49704e-06
2.0512e-06
1.06817e-06
-5.0917e-05
5.10443e-05
-5.44998e-05
5.40855e-05
1.0493e-06
-3.49173e-07
-5.5923e-05
-1.43173e-06
5.56965e-05
2.00738e-06
-5.49284e-05
1.56185e-06
1.3386e-07
5.48506e-05
-1.96708e-06
-3.36432e-07
-1.44226e-06
2.00704e-06
1.59364e-06
1.36669e-07
-2.00888e-06
-1.07482e-06
-5.37035e-05
5.33466e-05
-5.11224e-05
4.5119e-07
5.11583e-05
-1.06197e-06
4.5356e-07
8.8735e-08
-5.44485e-05
-3.21067e-07
5.4401e-05
4.13715e-07
-5.48057e-05
-1.6362e-07
1.07595e-08
5.47178e-05
3.29509e-07
8.24465e-08
-2.9964e-07
3.84793e-07
-1.62129e-07
8.85066e-09
3.13397e-07
7.95156e-08
-5.02195e-05
5.02701e-05
-5.14319e-05
9.07531e-09
5.13388e-05
8.15664e-08
8.55154e-09
-6.17108e-11
-5.53945e-05
-1.7181e-07
5.52679e-05
3.09185e-07
-5.5394e-05
-1.71937e-07
-1.08924e-08
5.52676e-05
3.09225e-07
4.54893e-11
-1.63986e-07
2.91614e-07
-1.63925e-07
-8.82682e-09
2.91639e-07
-5.37472e-10
-5.29766e-05
5.28144e-05
-5.29763e-05
-1.07639e-08
5.28146e-05
3.74906e-10
-7.42382e-09
-8.86263e-08
-5.48048e-05
-1.64141e-07
5.47171e-05
3.29579e-07
-5.44478e-05
-3.20522e-07
-1.33975e-07
5.44002e-05
4.13534e-07
-8.28149e-08
-1.61668e-07
3.13403e-07
-3.00148e-07
-1.36618e-07
3.84653e-07
-8.39512e-08
-5.143e-05
5.1339e-05
-5.02196e-05
-4.52926e-07
5.0268e-05
-7.84936e-08
-4.52814e-07
3.49588e-07
-5.49284e-05
1.5635e-06
5.48504e-05
-1.96908e-06
-5.59234e-05
-1.43292e-06
5.56968e-05
2.00918e-06
3.36935e-07
1.59497e-06
-2.01082e-06
-1.44359e-06
2.0089e-06
1.07546e-06
-5.11231e-05
5.11582e-05
-5.37053e-05
5.33478e-05
1.06335e-06
-3.61787e-07
-5.54744e-05
-1.3936e-06
5.52498e-05
1.98003e-06
-5.47543e-05
1.47886e-06
1.28514e-07
5.46395e-05
-1.85433e-06
-3.52805e-07
-1.3986e-06
1.97348e-06
1.50495e-06
1.30053e-07
-1.89155e-06
-1.0728e-06
-5.30117e-05
5.26909e-05
-5.11572e-05
4.39353e-07
5.11239e-05
-1.06373e-06
4.42319e-07
9.53115e-08
-5.43382e-05
-3.54086e-07
5.42588e-05
4.66683e-07
-5.46209e-05
-1.70664e-07
1.33969e-08
5.45124e-05
3.61098e-07
9.13878e-08
-3.33732e-07
4.35195e-07
-1.65001e-07
1.24342e-08
3.40869e-07
8.0725e-08
-5.02951e-05
5.02996e-05
-5.12451e-05
1.24729e-08
5.11427e-05
8.35752e-08
1.22522e-08
-1.80566e-10
-5.51355e-05
-1.84948e-07
5.49936e-05
3.40434e-07
-5.51351e-05
-1.85008e-07
-1.39482e-08
5.49934e-05
3.40477e-07
5.52856e-11
-1.76528e-07
3.21272e-07
-1.76428e-07
-1.23721e-08
3.21272e-07
-3.79563e-10
-5.26496e-05
5.24776e-05
-5.26494e-05
-1.37082e-08
5.24777e-05
5.09057e-10
-1.07088e-08
-9.53874e-08
-5.46201e-05
-1.7108e-07
5.45115e-05
3.61103e-07
-5.43377e-05
-3.53725e-07
-1.28634e-07
5.42581e-05
4.6654e-07
-9.1833e-08
-1.64405e-07
3.40848e-07
-3.34387e-07
-1.30054e-07
4.35116e-07
-8.42587e-08
-5.12433e-05
5.11428e-05
-5.02955e-05
-4.40707e-07
5.02982e-05
-7.93752e-08
-4.41193e-07
3.62224e-07
-5.47543e-05
1.48038e-06
5.46393e-05
-1.85627e-06
-5.54747e-05
-1.39477e-06
5.52499e-05
1.9818e-06
3.53328e-07
1.50616e-06
-1.89344e-06
-1.39991e-06
1.9753e-06
1.07357e-06
-5.1158e-05
5.11241e-05
-5.30131e-05
5.26919e-05
1.06521e-06
-3.68403e-07
-5.50255e-05
-1.36598e-06
5.47952e-05
1.96462e-06
-5.4509e-05
1.40302e-06
1.22745e-07
5.4362e-05
-1.74715e-06
-3.62161e-07
-1.36655e-06
1.95302e-06
1.4278e-06
1.24545e-07
-1.78397e-06
-1.06497e-06
-5.23834e-05
5.20824e-05
-5.10625e-05
4.26823e-07
5.09737e-05
-1.05909e-06
4.30088e-07
9.87027e-08
-5.41634e-05
-3.85718e-07
5.4051e-05
5.22235e-07
-5.43934e-05
-1.85082e-07
1.46648e-08
5.42616e-05
4.00977e-07
9.64127e-08
-3.65666e-07
4.89117e-07
-1.75734e-07
1.48451e-08
3.76285e-07
8.02657e-08
-5.02807e-05
5.02416e-05
-5.10355e-05
1.38127e-08
5.09169e-05
8.33157e-08
1.47475e-08
-3.22226e-10
-5.48444e-05
-1.99882e-07
5.46838e-05
3.75554e-07
-5.48439e-05
-1.99998e-07
-1.56248e-08
5.46836e-05
3.75626e-07
3.06902e-10
-1.90366e-07
3.54095e-07
-1.90386e-07
-1.38122e-08
3.53998e-07
-5.98493e-10
-5.23016e-05
5.21161e-05
-5.23013e-05
-1.59437e-08
5.21166e-05
3.47593e-10
-1.36291e-08
-9.88578e-08
-5.4393e-05
-1.85538e-07
5.42608e-05
4.00921e-07
-5.41631e-05
-3.8527e-07
-1.2291e-07
5.40503e-05
5.22082e-07
-9.64845e-08
-1.75192e-07
3.76427e-07
-3.66092e-07
-1.2447e-07
4.89072e-07
-8.45682e-08
-5.10341e-05
5.09172e-05
-5.02813e-05
-4.28419e-07
5.02399e-05
-8.01745e-08
-4.29369e-07
3.68822e-07
-5.4509e-05
1.40453e-06
5.43618e-05
-1.74906e-06
-5.50256e-05
-1.3671e-06
5.47952e-05
1.96633e-06
3.62697e-07
1.42904e-06
-1.78582e-06
-1.36778e-06
1.95476e-06
1.06565e-06
-5.10633e-05
5.09738e-05
-5.23846e-05
5.20831e-05
1.06043e-06
-3.70908e-07
-5.45621e-05
-1.3469e-06
5.432e-05
1.95999e-06
-5.42004e-05
1.33294e-06
1.17138e-07
5.40223e-05
-1.6429e-06
-3.66334e-07
-1.34303e-06
1.94246e-06
1.35525e-06
1.18816e-07
-1.67883e-06
-1.05293e-06
-5.17879e-05
5.14939e-05
-5.08625e-05
4.14317e-07
5.07282e-05
-1.04846e-06
4.17988e-07
1.0022e-07
-5.39229e-05
-4.1713e-07
5.3777e-05
5.79859e-07
-5.4118e-05
-2.05428e-07
1.60697e-08
5.39594e-05
4.48163e-07
9.85339e-08
-3.96678e-07
5.45068e-07
-1.93146e-07
1.57319e-08
4.19492e-07
7.88216e-08
-5.0179e-05
5.00973e-05
-5.0791e-05
1.40792e-08
5.06503e-05
8.39175e-08
1.66685e-08
-1.32822e-10
-5.45146e-05
-2.17289e-07
5.43323e-05
4.1579e-07
-5.45142e-05
-2.17581e-07
-1.62474e-08
5.43321e-05
4.15799e-07
1.38287e-10
-2.06404e-07
3.91161e-07
-2.06193e-07
-1.53471e-08
3.91085e-07
-9.42873e-10
-5.19256e-05
5.17233e-05
-5.1925e-05
-1.76485e-08
5.17241e-05
7.94866e-10
-1.37562e-08
-1.00133e-07
-5.41174e-05
-2.05819e-07
5.39589e-05
4.48212e-07
-5.39226e-05
-4.16489e-07
-1.17268e-07
5.37765e-05
5.79728e-07
-9.88653e-08
-1.9265e-07
4.19544e-07
-3.97404e-07
-1.18759e-07
5.45041e-07
-8.47063e-08
-5.07896e-05
5.06509e-05
-5.01803e-05
-4.1637e-07
5.00954e-05
-7.88134e-08
-4.16611e-07
3.71324e-07
-5.42004e-05
1.33447e-06
5.40221e-05
-1.64476e-06
-5.45622e-05
-1.34796e-06
5.43198e-05
1.96164e-06
3.6688e-07
1.35635e-06
-1.68062e-06
-1.34426e-06
1.94416e-06
1.05347e-06
-5.08636e-05
5.07282e-05
-5.17888e-05
5.14944e-05
1.04998e-06
-3.70768e-07
-5.40722e-05
-1.33555e-06
5.38126e-05
1.96592e-06
-5.38301e-05
1.26667e-06
1.11948e-07
5.36208e-05
-1.54012e-06
-3.67297e-07
-1.32776e-06
1.94278e-06
1.28774e-06
1.13419e-07
-1.57625e-06
-1.03853e-06
-5.12011e-05
5.09041e-05
-5.05749e-05
4.02553e-07
5.04005e-05
-1.03496e-06
4.06133e-07
1.0027e-07
-5.36155e-05
-4.48181e-07
5.34355e-05
6.39901e-07
-5.37883e-05
-2.30156e-07
1.6857e-08
5.36003e-05
5.01581e-07
9.91118e-08
-4.27238e-07
6.03092e-07
-2.15499e-07
1.63845e-08
4.69384e-07
7.74165e-08
-4.99928e-05
4.98697e-05
-5.05002e-05
1.46017e-08
5.03329e-05
8.34675e-08
1.8058e-08
-1.10926e-10
-5.414e-05
-2.38081e-07
5.39327e-05
4.62361e-07
-5.41397e-05
-2.38426e-07
-1.6891e-08
5.39326e-05
4.62361e-07
6.73987e-11
-2.25313e-07
4.33886e-07
-2.24988e-07
-1.63925e-08
4.33829e-07
-1.08376e-09
-5.15151e-05
5.12927e-05
-5.15143e-05
-1.88138e-08
5.12936e-05
9.85887e-10
-1.423e-08
-1.00153e-07
-5.37877e-05
-2.30509e-07
5.35999e-05
5.01642e-07
-5.36153e-05
-4.47499e-07
-1.12077e-07
5.34349e-05
6.39781e-07
-9.95335e-08
-2.15056e-07
4.69402e-07
-4.28069e-07
-1.13363e-07
6.03077e-07
-8.38626e-08
-5.0499e-05
5.03335e-05
-4.99944e-05
-4.04733e-07
4.98678e-05
-7.74267e-08
-4.04497e-07
3.71177e-07
-5.38301e-05
1.26819e-06
5.36206e-05
-1.54195e-06
-5.40722e-05
-1.33657e-06
5.38124e-05
1.96751e-06
3.67843e-07
1.28879e-06
-1.57799e-06
-1.32896e-06
1.94443e-06
1.03902e-06
-5.0576e-05
5.04004e-05
-5.12019e-05
5.09044e-05
1.03652e-06
-3.68408e-07
-5.35453e-05
-1.32918e-06
5.32637e-05
1.97917e-06
-5.33975e-05
1.20105e-06
1.07151e-07
5.31564e-05
-1.43551e-06
-3.65973e-07
-1.31907e-06
1.95236e-06
1.22255e-06
1.08474e-07
-1.47371e-06
-1.02148e-06
-5.06043e-05
5.02966e-05
-5.0209e-05
3.91057e-07
4.99975e-05
-1.01928e-06
3.94701e-07
9.92681e-08
-5.32395e-05
-4.79453e-07
5.30242e-05
7.02672e-07
-5.33988e-05
-2.58283e-07
1.73005e-08
5.3179e-05
5.60062e-07
9.85839e-08
-4.58013e-07
6.63842e-07
-2.41704e-07
1.69109e-08
5.24823e-07
7.5759e-08
-4.97241e-05
4.95599e-05
-5.01545e-05
1.50041e-08
4.9957e-05
8.23363e-08
1.89968e-08
-1.10225e-10
-5.37141e-05
-2.62234e-07
5.34786e-05
5.1515e-07
-5.37138e-05
-2.62604e-07
-1.73044e-08
5.34785e-05
5.15147e-07
6.02538e-11
-2.4761e-07
4.83082e-07
-2.4724e-07
-1.69848e-08
4.83026e-07
-1.1532e-09
-5.1063e-05
5.08169e-05
-5.10622e-05
-1.95727e-08
5.0818e-05
1.07308e-09
-1.4711e-08
-9.91472e-08
-5.33983e-05
-2.58615e-07
5.31787e-05
5.60125e-07
-5.32394e-05
-4.78764e-07
-1.07278e-07
5.30237e-05
7.02566e-07
-9.90085e-08
-2.41297e-07
5.2484e-07
-4.58878e-07
-1.08412e-07
6.63845e-07
-8.25031e-08
-5.01535e-05
4.99578e-05
-4.9726e-05
-3.93284e-07
4.9558e-05
-7.59193e-08
-3.92978e-07
3.6881e-07
-5.33975e-05
1.20254e-06
5.31562e-05
-1.4373e-06
-5.35452e-05
-1.33017e-06
5.32635e-05
1.98072e-06
3.66514e-07
1.22356e-06
-1.47542e-06
-1.32023e-06
1.95396e-06
1.02194e-06
-5.02101e-05
4.99975e-05
-5.0605e-05
5.02967e-05
1.02084e-06
-3.64872e-07
-5.29724e-05
-1.32875e-06
5.26645e-05
2.0015e-06
-5.29008e-05
1.13692e-06
1.02887e-07
5.26263e-05
-1.33017e-06
-3.63069e-07
-1.31602e-06
1.97043e-06
1.15856e-06
1.04013e-07
-1.37e-06
-1.00364e-06
-4.99827e-05
4.96576e-05
-4.97701e-05
3.80289e-07
4.95231e-05
-1.00216e-06
3.83811e-07
9.76693e-08
-5.27926e-05
-5.11602e-07
5.25405e-05
7.68881e-07
-5.29447e-05
-2.89686e-07
1.75124e-08
5.26905e-05
6.24086e-07
9.72868e-08
-4.89513e-07
7.27852e-07
-2.71257e-07
1.7216e-08
5.85587e-07
7.39533e-08
-4.93733e-05
4.9168e-05
-4.9747e-05
1.52366e-08
4.95161e-05
8.09026e-08
1.95934e-08
-1.11855e-10
-5.32304e-05
-2.90022e-07
5.29633e-05
5.74677e-07
-5.32301e-05
-2.90404e-07
-1.75112e-08
5.29632e-05
5.74674e-07
5.84601e-11
-2.7341e-07
5.38795e-07
-2.73018e-07
-1.73066e-08
5.38736e-07
-1.18911e-09
-5.0562e-05
5.02884e-05
-5.05611e-05
-2.00284e-08
5.02896e-05
1.11799e-09
-1.50334e-08
-9.75466e-08
-5.29443e-05
-2.90018e-07
5.26902e-05
6.2415e-07
-5.27925e-05
-5.10906e-07
-1.03013e-07
5.25401e-05
7.68782e-07
-9.77054e-08
-2.70869e-07
5.85606e-07
-4.90395e-07
-1.03946e-07
7.27865e-07
-8.09622e-08
-4.97461e-05
4.9517e-05
-4.93754e-05
-3.82553e-07
4.91661e-05
-7.42147e-08
-3.82035e-07
3.65265e-07
-5.29008e-05
1.13837e-06
5.2626e-05
-1.33191e-06
-5.29722e-05
-1.32971e-06
5.26642e-05
2.00301e-06
3.63602e-07
1.15954e-06
-1.37167e-06
-1.31715e-06
1.97199e-06
1.00408e-06
-4.97713e-05
4.9523e-05
-4.99833e-05
4.96577e-05
1.0037e-06
-3.6042e-07
-5.23451e-05
-1.33316e-06
5.20071e-05
2.03167e-06
-5.23368e-05
1.0727e-06
9.909e-08
5.20272e-05
-1.22253e-06
-3.59079e-07
-1.31802e-06
1.99647e-06
1.09519e-06
1.00032e-07
-1.26484e-06
-9.85028e-07
-4.93237e-05
4.89755e-05
-4.92608e-05
3.70051e-07
4.89784e-05
-9.84081e-07
3.7347e-07
9.56543e-08
-5.22718e-05
-5.4472e-07
5.19813e-05
8.3856e-07
-5.24209e-05
-3.2402e-07
1.75367e-08
5.21296e-05
6.93376e-07
9.54775e-08
-5.21788e-07
7.95092e-07
-3.0385e-07
1.73286e-08
6.51619e-07
7.20142e-08
-4.89404e-05
4.86937e-05
-4.92716e-05
1.52912e-08
4.90043e-05
7.93253e-08
1.99161e-08
-1.13529e-10
-5.26823e-05
-3.21248e-07
5.23806e-05
6.4063e-07
-5.26821e-05
-3.21637e-07
-1.7541e-08
5.23805e-05
6.40627e-07
5.88108e-11
-3.02666e-07
6.00955e-07
-3.02265e-07
-1.7418e-08
6.00896e-07
-1.20713e-09
-5.00045e-05
4.96997e-05
-5.00036e-05
-2.02364e-08
4.9701e-05
1.14144e-09
-1.51755e-08
-9.55274e-08
-5.24205e-05
-3.24368e-07
5.21294e-05
6.93444e-07
-5.22717e-05
-5.4401e-07
-9.92148e-08
5.19809e-05
8.38465e-07
-9.589e-08
-3.03461e-07
6.51641e-07
-5.22684e-07
-9.99596e-08
7.9511e-07
-7.93262e-08
-4.92707e-05
4.90054e-05
-4.89427e-05
-3.7236e-07
4.86917e-05
-7.23548e-08
-3.71639e-07
3.60804e-07
-5.23368e-05
1.07412e-06
5.20269e-05
-1.22423e-06
-5.23449e-05
-1.33409e-06
5.20067e-05
2.03313e-06
3.59604e-07
1.09613e-06
-1.26647e-06
-1.31911e-06
1.99798e-06
9.85439e-07
-4.92619e-05
4.89782e-05
-4.93241e-05
4.89755e-05
9.85601e-07
-3.55325e-07
-5.1656e-05
-1.34197e-06
5.12841e-05
2.06914e-06
-5.17019e-05
1.00722e-06
9.57102e-08
5.13551e-05
-1.11152e-06
-3.54331e-07
-1.3246e-06
2.03004e-06
1.03107e-06
9.64892e-08
-1.15661e-06
-9.65922e-07
-4.86163e-05
4.82403e-05
-4.86804e-05
3.60285e-07
4.83614e-05
-9.65389e-07
3.63641e-07
9.33791e-08
-5.16738e-05
-5.79106e-07
5.13432e-05
9.11966e-07
-5.18221e-05
-3.61046e-07
1.74145e-08
5.14914e-05
7.67759e-07
9.3338e-08
-5.55194e-07
8.65939e-07
-3.39246e-07
1.72853e-08
7.22791e-07
6.99805e-08
-4.84245e-05
4.81357e-05
-4.87228e-05
1.51852e-08
4.84165e-05
7.76957e-08
2.00221e-08
-1.15132e-10
-5.20637e-05
-3.5575e-07
5.17242e-05
7.12772e-07
-5.20635e-05
-3.56141e-07
-1.74303e-08
5.17242e-05
7.12772e-07
6.03605e-11
-3.35249e-07
6.69374e-07
-3.34847e-07
-1.73646e-08
6.69316e-07
-1.2169e-09
-4.93834e-05
4.9044e-05
-4.93825e-05
-2.02509e-08
4.90454e-05
1.1544e-09
-1.51482e-08
-9.32449e-08
-5.18218e-05
-3.61425e-07
5.14912e-05
7.6783e-07
-5.16738e-05
-5.78376e-07
-9.58346e-08
5.13428e-05
9.11874e-07
-9.37475e-08
-3.3884e-07
7.22815e-07
-5.56107e-07
-9.64119e-08
8.65961e-07
-7.76695e-08
-4.87218e-05
4.84178e-05
-4.8427e-05
-3.62657e-07
4.81336e-05
-7.03837e-08
-3.61742e-07
3.55699e-07
-5.17018e-05
1.00862e-06
5.13549e-05
-1.11317e-06
-5.16557e-05
-1.34287e-06
5.12837e-05
2.07056e-06
3.54846e-07
1.03199e-06
-1.1582e-06
-1.32566e-06
2.03151e-06
9.66301e-07
-4.86816e-05
4.83612e-05
-4.86167e-05
4.82401e-05
9.66895e-07
-3.49689e-07
-5.0898e-05
-1.35438e-06
5.04889e-05
2.11319e-06
-5.09924e-05
9.38987e-07
9.26634e-08
5.06057e-05
-9.94647e-07
-3.48907e-07
-1.33474e-06
2.06979e-06
9.64724e-07
9.32946e-08
-1.0442e-06
-9.46308e-07
-4.78515e-05
4.74434e-05
-4.80261e-05
3.50859e-07
4.76679e-05
-9.45935e-07
3.54133e-07
9.09318e-08
-5.09951e-05
-6.1474e-07
5.06223e-05
9.89195e-07
-5.11437e-05
-4.00419e-07
1.71755e-08
5.0771e-05
8.46847e-07
9.096e-08
-5.89702e-07
9.40194e-07
-3.77047e-07
1.71129e-08
7.98601e-07
6.7865e-08
-4.7824e-05
4.74923e-05
-4.80956e-05
1.49379e-08
4.77481e-05
7.60469e-08
1.99534e-08
-1.16722e-10
-5.13686e-05
-3.93224e-07
5.09885e-05
7.90602e-07
-5.13684e-05
-3.93618e-07
-1.72068e-08
5.09885e-05
7.90605e-07
6.27786e-11
-3.70827e-07
7.43485e-07
-3.70425e-07
-1.71764e-08
7.43428e-07
-1.22436e-09
-4.8692e-05
4.83149e-05
-4.86911e-05
-2.01134e-08
4.83163e-05
1.16352e-09
-1.49656e-08
-9.07865e-08
-5.11434e-05
-4.00844e-07
5.07709e-05
8.46921e-07
-5.09951e-05
-6.1398e-07
-9.27892e-08
5.0622e-05
9.89102e-07
-9.137e-08
-3.7661e-07
7.98625e-07
-5.9064e-07
-9.32124e-08
9.40218e-07
-7.60277e-08
-4.80946e-05
4.77496e-05
-4.78268e-05
-3.53318e-07
4.74901e-05
-6.83056e-08
-3.52146e-07
3.50051e-07
-5.09924e-05
9.40376e-07
5.06054e-05
-9.96288e-07
-5.08977e-05
-1.35526e-06
5.04884e-05
2.11457e-06
3.49414e-07
9.65615e-07
-1.04575e-06
-1.33578e-06
2.07121e-06
9.4665e-07
-4.80273e-05
4.76677e-05
-4.78518e-05
4.74432e-05
9.4743e-07
-3.43742e-07
-5.00639e-05
-1.37036e-06
4.96143e-05
2.16373e-06
-5.02012e-05
8.68259e-07
8.99305e-08
4.97712e-05
-8.71965e-07
-3.43229e-07
-1.34911e-06
2.11725e-06
8.96026e-07
9.04576e-08
-9.25148e-07
-9.2659e-07
-4.70209e-05
4.65772e-05
-4.72921e-05
3.41829e-07
4.68919e-05
-9.26641e-07
3.45185e-07
8.83984e-08
-5.02311e-05
-6.51834e-07
4.98141e-05
1.07039e-06
-5.03806e-05
-4.42087e-07
1.68515e-08
4.99637e-05
9.30526e-07
8.85017e-08
-6.25789e-07
1.01894e-06
-4.17319e-07
1.68533e-08
8.79416e-07
6.57084e-08
-4.71372e-05
4.67615e-05
-4.73855e-05
1.45785e-08
4.69945e-05
7.44769e-08
1.97663e-08
-1.18299e-10
-5.05913e-05
-4.33536e-07
5.01679e-05
8.73873e-07
-5.05911e-05
-4.33931e-07
-1.69007e-08
5.01679e-05
8.73879e-07
6.61227e-11
-4.0946e-07
8.23472e-07
-4.09061e-07
-1.68972e-08
8.23417e-07
-1.23346e-09
-4.79241e-05
4.75063e-05
-4.79231e-05
-1.98667e-08
4.75078e-05
1.17452e-09
-1.46646e-08
-8.82381e-08
-5.03803e-05
-4.42569e-07
4.99636e-05
9.30604e-07
-5.02312e-05
-6.51033e-07
-9.00583e-08
4.98138e-05
1.0703e-06
-8.89155e-08
-4.16837e-07
8.79439e-07
-6.2676e-07
-9.03707e-08
1.01897e-06
-7.44517e-08
-4.73843e-05
4.69963e-05
-4.71402e-05
-3.444e-07
4.67592e-05
-6.62011e-08
-3.43085e-07
3.44092e-07
-5.02011e-05
8.69637e-07
4.97709e-05
-8.7358e-07
-5.00637e-05
-1.37121e-06
4.96139e-05
2.16508e-06
3.43728e-07
8.96892e-07
-9.2669e-07
-1.35012e-06
2.11864e-06
9.26889e-07
-4.72934e-05
4.68917e-05
-4.70212e-05
4.65769e-05
9.28131e-07
-3.376e-07
-4.91481e-05
-1.38968e-06
4.86557e-05
2.21969e-06
-4.93231e-05
7.94433e-07
8.75129e-08
4.88487e-05
-7.45175e-07
-3.37216e-07
-1.36649e-06
2.16996e-06
8.24529e-07
8.79096e-08
-8.01582e-07
-9.06803e-07
-4.61177e-05
4.56348e-05
-4.64729e-05
3.3317e-07
4.60274e-05
-9.07014e-07
3.36532e-07
8.57964e-08
-4.93783e-05
-6.90672e-07
4.89156e-05
1.15511e-06
-4.95285e-05
-4.85849e-07
1.64638e-08
4.90654e-05
1.01826e-06
8.59425e-08
-6.63305e-07
1.1011e-06
-4.59696e-07
1.6518e-08
9.64316e-07
6.36024e-08
-4.63618e-05
4.59407e-05
-4.65883e-05
1.4153e-08
4.61519e-05