/*--------------------------------*- C++ -*----------------------------------*\
  =========                 |
  \\      /  F ield         | OpenFOAM: The Open Source CFD Toolbox
   \\    /   O peration     | Website:  https://openfoam.org
    \\  /    A nd           | Version:  9
     \\/     M anipulation  |
\*---------------------------------------------------------------------------*/
FoamFile
{
    format      ascii;
    class       volVectorField;
    location    "1.85";
    object      U;
}
// * * * * * * * * * * * * * * * * * * * * * * * * * * * * * * * * * * * * * //

dimensions      [0 1 -1 0 0 0 0];

internalField   nonuniform List<vector> 
36360
(
(0.00127104 -0.122202 -0.499)
(-0.00030566 -0.091388 0.000139673)
(0.000556429 -0.125105 -0.50117)
(-0.0017808 -0.0831573 6.4589e-05)
(-0.000164121 -0.12609 -0.501206)
(0.00929881 -0.0848444 1.23924e-05)
(0.0014158 -0.12793 -0.502069)
(0.0107 -0.0927647 1.61303e-05)
(-7.0333e-05 -0.100645 -8.30784e-05)
(-0.00251015 -0.105187 -4.98345e-06)
(-0.00239107 -0.0986603 -4.35368e-05)
(-0.00312624 -0.103183 -2.05301e-06)
(0.00598933 -0.106454 -2.24187e-06)
(0.00444238 -0.106872 -5.79242e-06)
(0.00733543 -0.110502 -1.78846e-05)
(0.00654323 -0.109305 -3.72321e-06)
(-0.00256044 -0.106398 -3.62612e-08)
(-0.00256039 -0.106398 3.36138e-08)
(-0.00291711 -0.104392 -6.387e-08)
(-0.00291704 -0.104391 6.29332e-08)
(0.00459802 -0.105602 -1.69651e-06)
(0.00459807 -0.105601 1.69324e-06)
(0.00650357 -0.108198 -3.15721e-07)
(0.00650354 -0.108198 3.14531e-07)
(-0.00251044 -0.105185 4.97986e-06)
(-7.01171e-05 -0.10064 8.30683e-05)
(-0.00312624 -0.103181 2.05249e-06)
(-0.00239101 -0.098656 4.35329e-05)
(0.00444243 -0.106869 5.78772e-06)
(0.00598972 -0.106449 2.22381e-06)
(0.00654323 -0.109302 3.72174e-06)
(0.00733552 -0.110496 1.78813e-05)
(-0.000306025 -0.0913837 -0.000139708)
(0.00127086 -0.122209 0.498999)
(-0.00178044 -0.0831518 -6.46111e-05)
(0.000556774 -0.125112 0.501169)
(0.00929986 -0.0848347 -1.23672e-05)
(-0.000163542 -0.126105 0.501206)
(0.0107012 -0.092757 -1.61218e-05)
(0.00141713 -0.127946 0.502069)
(0.00379091 -0.118945 -0.497271)
(-0.00289957 -0.0975714 0.000159755)
(0.00285787 -0.120776 -0.49819)
(-0.00120097 -0.0949595 0.000160397)
(0.000641354 -0.124082 -0.501038)
(0.00154651 -0.078496 -3.53893e-05)
(0.000104763 -0.125552 -0.501251)
(0.00529424 -0.0788586 -7.52061e-06)
(0.00186949 -0.102353 -7.19836e-05)
(0.000421516 -0.106193 -1.17919e-05)
(0.00177796 -0.10169 -8.22015e-05)
(-0.000612554 -0.106054 -8.05886e-06)
(0.00445609 -0.0979212 6.65689e-05)
(0.00231231 -0.103983 -1.04431e-05)
(0.00568091 -0.101487 2.78701e-05)
(0.00316616 -0.105144 -8.30171e-06)
(-0.000842691 -0.108144 -2.54066e-06)
(-0.000843119 -0.108144 2.53625e-06)
(-0.00165962 -0.107751 -1.08728e-06)
(-0.0016598 -0.10775 1.08323e-06)
(0.00193876 -0.103544 -4.01446e-06)
(0.00193888 -0.103543 4.01081e-06)
(0.00333721 -0.103951 -3.16292e-06)
(0.00333735 -0.10395 3.15851e-06)
(0.000421423 -0.10619 1.17768e-05)
(0.00186962 -0.102348 7.19486e-05)
(-0.000612924 -0.106052 8.05017e-06)
(0.00177827 -0.101685 8.21791e-05)
(0.00231222 -0.10398 1.04309e-05)
(0.00445665 -0.0979148 -6.66318e-05)
(0.00316617 -0.105141 8.29332e-06)
(0.00568153 -0.101481 -2.79086e-05)
(-0.0029013 -0.0975689 -0.000159761)
(0.00379162 -0.118951 0.497269)
(-0.00120192 -0.0949566 -0.000160421)
(0.00285822 -0.120783 0.498188)
(0.0015454 -0.0784877 3.5476e-05)
(0.000642509 -0.124096 0.501038)
(0.00529396 -0.0788495 7.57215e-06)
(0.000105571 -0.125567 0.501251)
(0.00452749 -0.115732 -0.496092)
(-0.0050874 -0.100121 0.000127283)
(0.00429453 -0.1172 -0.496577)
(-0.00420146 -0.0990389 0.000147423)
(0.00158549 -0.119912 -0.500925)
(-0.00182133 -0.0811762 -0.000108677)
(0.00124226 -0.121951 -0.501022)
(-0.000648422 -0.0793334 -7.03427e-05)
(0.000977588 -0.102541 -2.53057e-05)
(0.000604013 -0.106048 -1.41796e-05)
(0.0014593 -0.102539 -5.11959e-05)
(0.000671954 -0.106171 -1.42209e-05)
(0.00211699 -0.0937146 0.00015485)
(0.00102256 -0.10135 -9.21145e-06)
(0.00305252 -0.095274 0.000110848)
(0.00162876 -0.102486 -1.07562e-05)
(-5.99465e-05 -0.10807 -5.32322e-06)
(-6.00986e-05 -0.108069 5.34904e-06)
(-0.000265049 -0.108236 -3.96861e-06)
(-0.000265223 -0.108235 3.94591e-06)
(0.000310592 -0.102912 -5.54808e-06)
(0.00031027 -0.102912 5.56578e-06)
(0.0008542 -0.103169 -4.74821e-06)
(0.000853988 -0.103168 4.74756e-06)
(0.000604175 -0.106045 1.42461e-05)
(0.000977622 -0.102537 2.52746e-05)
(0.000672083 -0.106168 1.4224e-05)
(0.00145912 -0.102535 5.11764e-05)
(0.00102268 -0.101348 9.20981e-06)
(0.00211728 -0.0937081 -0.000154955)
(0.00162872 -0.102484 1.07461e-05)
(0.0030529 -0.0952675 -0.000110931)
(-0.00508956 -0.100119 -0.000127273)
(0.00452897 -0.115737 0.496089)
(-0.00420356 -0.0990367 -0.000147431)
(0.00429558 -0.117205 0.496574)
(-0.00182291 -0.0811697 0.000108848)
(0.00158725 -0.119925 0.500924)
(-0.000649811 -0.079326 7.04696e-05)
(0.00124371 -0.121965 0.501022)
(0.00475648 -0.113357 -0.495427)
(-0.00589029 -0.101804 7.5135e-05)
(0.0046636 -0.114461 -0.495692)
(-0.00562053 -0.101021 0.000102372)
(0.00190527 -0.115949 -0.500797)
(-0.00265887 -0.0857395 -0.000184957)
(0.0017874 -0.117888 -0.500848)
(-0.00241194 -0.0834328 -0.00014742)
(0.000357141 -0.102532 2.72972e-05)
(0.000355045 -0.105595 -6.55517e-06)
(0.000600942 -0.102508 1.65908e-06)
(0.00045722 -0.105816 -1.14669e-05)
(0.00121759 -0.0926616 0.000231736)
(0.000432914 -0.100199 -8.25508e-07)
(0.00154894 -0.092944 0.000195607)
(0.000633765 -0.10064 -5.81431e-06)
(-1.88357e-05 -0.107544 -6.78995e-06)
(-1.87749e-05 -0.107543 6.79012e-06)
(-2.68456e-05 -0.107806 -6.31425e-06)
(-2.6825e-05 -0.107805 6.32791e-06)
(-2.3452e-05 -0.102798 -6.65202e-06)
(-2.34702e-05 -0.102797 6.65146e-06)
(7.21018e-05 -0.102802 -6.2561e-06)
(7.19692e-05 -0.102802 6.26527e-06)
(0.000355229 -0.105593 6.5231e-06)
(0.000357012 -0.102528 -2.73659e-05)
(0.000457387 -0.105814 1.14588e-05)
(0.000600832 -0.102505 -1.70926e-06)
(0.000433116 -0.100196 7.90582e-07)
(0.00121763 -0.0926556 -0.000231906)
(0.000633926 -0.100638 5.7955e-06)
(0.00154915 -0.0929377 -0.000195744)
(-0.00589279 -0.101802 -7.50554e-05)
(0.00475858 -0.113362 0.495423)
(-0.00562288 -0.101019 -0.000102312)
(0.00466541 -0.114466 0.495689)
(-0.00266074 -0.0857345 0.000185208)
(0.00190753 -0.115961 0.500796)
(-0.00241372 -0.0834271 0.000147634)
(0.00178943 -0.1179 0.500847)
(0.00488342 -0.11154 -0.495038)
(-0.00597468 -0.103049 2.01342e-05)
(0.00483123 -0.112392 -0.495185)
(-0.00598701 -0.102479 4.73118e-05)
(0.00200426 -0.112438 -0.500723)
(-0.00265778 -0.0898125 -0.000253031)
(0.00197699 -0.11413 -0.500751)
(-0.00270796 -0.0878952 -0.000220341)
(0.000151221 -0.102762 7.08569e-05)
(0.00029353 -0.105258 6.77338e-06)
(0.000218 -0.102623 5.04783e-05)
(0.000306268 -0.105409 -2.49968e-07)
(0.000887726 -0.0928774 0.00028868)
(0.000314499 -0.0996238 1.20582e-05)
(0.00100903 -0.0926849 0.000262718)
(0.000344166 -0.0998851 5.2892e-06)
(6.69061e-05 -0.1071 -6.30485e-06)
(6.69874e-05 -0.107099 6.28979e-06)
(1.23833e-05 -0.107308 -6.76447e-06)
(1.24631e-05 -0.107307 6.77196e-06)
(-1.69535e-06 -0.102781 -6.28826e-06)
(-1.65505e-06 -0.102781 6.27417e-06)
(-2.75037e-05 -0.102809 -6.65962e-06)
(-2.74807e-05 -0.102808 6.65302e-06)
(0.000293703 -0.105255 -6.82888e-06)
(0.000151063 -0.102759 -7.09449e-05)
(0.000306449 -0.105406 1.87345e-07)
(0.00021786 -0.10262 -5.05766e-05)
(0.000314709 -0.0996212 -1.21175e-05)
(0.000887768 -0.0928721 -0.000288898)
(0.000344388 -0.0998826 -5.33935e-06)
(0.00100908 -0.0926793 -0.000262917)
(-0.00597754 -0.103048 -2.0019e-05)
(0.00488595 -0.111544 0.495033)
(-0.00598969 -0.102477 -4.7203e-05)
(0.00483358 -0.112396 0.495181)
(-0.00266022 -0.0898088 0.000253355)
(0.00200685 -0.112448 0.500722)
(-0.00271015 -0.0878908 0.000220629)
(0.00197943 -0.11414 0.50075)
(0.00493602 -0.110093 -0.494801)
(-0.0058086 -0.103893 -2.95791e-05)
(0.00492046 -0.110779 -0.494881)
(-0.00590704 -0.10352 -5.63424e-06)
(0.00198357 -0.109436 -0.500676)
(-0.00245797 -0.092838 -0.00030947)
(0.00200715 -0.110873 -0.500693)
(-0.00257049 -0.0914601 -0.000282741)
(0.000125595 -0.103079 0.000102726)
(0.000311779 -0.105026 2.11337e-05)
(0.00012579 -0.102921 8.82109e-05)
(0.000299101 -0.105133 1.40025e-05)
(0.000786339 -0.0934941 0.000327269)
(0.000303534 -0.099159 2.61316e-05)
(0.000819679 -0.0931655 0.000310003)
(0.000305955 -0.0993864 1.9105e-05)
(0.000189696 -0.106729 -4.40462e-06)
(0.000189757 -0.106728 4.38148e-06)
(0.000129395 -0.10691 -5.48428e-06)
(0.000129469 -0.106909 5.46497e-06)
(8.70298e-05 -0.102569 -4.55154e-06)
(8.70759e-05 -0.102569 4.52899e-06)
(4.19543e-05 -0.102708 -5.56571e-06)
(4.20033e-05 -0.102708 5.54715e-06)
(0.000311918 -0.105023 -2.12052e-05)
(0.000125412 -0.103076 -0.000102826)
(0.000299254 -0.105131 -1.40664e-05)
(0.000125618 -0.102918 -8.83054e-05)
(0.000303676 -0.0991563 -2.62083e-05)
(0.000786355 -0.0934897 -0.000327521)
(0.000306131 -0.0993838 -1.91734e-05)
(0.000819697 -0.0931606 -0.000310239)
(-0.00581176 -0.103892 2.9735e-05)
(0.0049388 -0.110096 0.494796)
(-0.00591007 -0.103519 5.76968e-06)
(0.00492313 -0.110783 0.494876)
(-0.00246071 -0.0928356 0.000309861)
(0.00198635 -0.109444 0.500675)
(-0.00257311 -0.0914571 0.0002831)
(0.00200985 -0.110882 0.500692)
(0.00492895 -0.108889 -0.494639)
(-0.0055976 -0.104373 -7.12117e-05)
(0.00493997 -0.109466 -0.494687)
(-0.00570451 -0.104175 -5.1448e-05)
(0.00190324 -0.10693 -0.500642)
(-0.00223658 -0.0948839 -0.000354421)
(0.00195049 -0.108123 -0.500653)
(-0.00234783 -0.0939708 -0.000333291)
(0.000154537 -0.103342 0.000124129)
(0.00033476 -0.104825 3.43809e-05)
(0.000136364 -0.103222 0.000114586)
(0.000324213 -0.104925 2.79661e-05)
(0.000773753 -0.0941595 0.00035177)
(0.000293155 -0.0987297 3.93505e-05)
(0.000772076 -0.0938324 0.000341003)
(0.000299357 -0.0989398 3.29264e-05)
(0.000281273 -0.106374 -1.6903e-06)
(0.000281317 -0.106373 1.66069e-06)
(0.000240435 -0.106552 -3.12218e-06)
(0.000240483 -0.106551 3.09549e-06)
(0.000145116 -0.102167 -1.92935e-06)
(0.000145148 -0.102167 1.90069e-06)
(0.000120644 -0.102386 -3.31707e-06)
(0.000120681 -0.102385 3.29093e-06)
(0.000334868 -0.104823 -3.44636e-05)
(0.000154337 -0.10334 -0.000124237)
(0.000324339 -0.104923 -2.80441e-05)
(0.000136168 -0.10322 -0.000114691)
(0.000293242 -0.0987271 -3.94387e-05)
(0.000773849 -0.0941559 -0.00035204)
(0.000299471 -0.0989372 -3.30099e-05)
(0.000772114 -0.0938283 -0.000341265)
(-0.00560097 -0.104373 7.14097e-05)
(0.00493187 -0.108891 0.494633)
(-0.00570779 -0.104174 5.16249e-05)
(0.00494283 -0.109468 0.494681)
(-0.00223948 -0.0948826 0.000354871)
(0.00190609 -0.106936 0.50064)
(-0.00235066 -0.0939691 0.000333713)
(0.00195332 -0.10813 0.500652)
(0.00489438 -0.107846 -0.494513)
(-0.00540499 -0.10456 -0.000104618)
(0.00491549 -0.108351 -0.494547)
(-0.00549978 -0.104499 -8.88855e-05)
(0.0018067 -0.104863 -0.500614)
(-0.00205059 -0.096163 -0.000389454)
(0.00185914 -0.105846 -0.500623)
(-0.00214251 -0.095607 -0.000373058)
(0.000204611 -0.103498 0.000137392)
(0.000350624 -0.104608 4.56599e-05)
(0.000176258 -0.103435 0.000131611)
(0.000343123 -0.10472 4.02897e-05)
(0.000806398 -0.0947468 0.000366318)
(0.000276336 -0.0983385 5.07516e-05)
(0.00078494 -0.0944674 0.000360052)
(0.000285291 -0.0985294 4.53076e-05)
(0.000341036 -0.105997 1.43699e-06)
(0.00034107 -0.105996 -1.46763e-06)
(0.000314037 -0.106189 -1.56946e-07)
(0.000314076 -0.106188 1.26048e-07)
(0.000179186 -0.10166 1.09616e-06)
(0.000179214 -0.10166 -1.12616e-06)
(0.000164354 -0.101923 -4.41623e-07)
(0.000164384 -0.101923 4.1264e-07)
(0.000350688 -0.104606 -4.57413e-05)
(0.000204411 -0.103496 -0.00013749)
(0.000343212 -0.104718 -4.03744e-05)
(0.000176055 -0.103433 -0.000131718)
(0.000276352 -0.098336 -5.08309e-05)
(0.00080661 -0.094744 -0.000366576)
(0.00028535 -0.0985268 -4.53966e-05)
(0.000785086 -0.0944643 -0.000360323)
(-0.00540845 -0.104559 0.00010486)
(0.00489736 -0.107848 0.494507)
(-0.0055032 -0.104498 8.91051e-05)
(0.00491843 -0.108353 0.494541)
(-0.00205354 -0.0961626 0.000389957)
(0.00180958 -0.104868 0.500613)
(-0.00214544 -0.0956062 0.000373534)
(0.00186201 -0.105851 0.500622)
(0.00486155 -0.106914 -0.494395)
(-0.00523934 -0.104516 -0.000130645)
(0.00487798 -0.10737 -0.494425)
(-0.00532002 -0.104562 -0.000118468)
(0.00172168 -0.103151 -0.500588)
(-0.00190644 -0.0968729 -0.000416671)
(0.00176412 -0.103969 -0.500596)
(-0.00197576 -0.0965778 -0.000403834)
(0.00026958 -0.103528 0.000144764)
(0.000369109 -0.104353 5.47138e-05)
(0.000235225 -0.10353 0.000141685)
(0.000358861 -0.104486 5.04609e-05)
(0.00086953 -0.0951961 0.00037455)
(0.000254642 -0.0979809 6.03684e-05)
(0.000833392 -0.0949914 0.000370954)
(0.000266163 -0.0981568 5.56885e-05)
(0.000386191 -0.105587 4.65411e-06)
(0.000386255 -0.105586 -4.73676e-06)
(0.000364406 -0.105797 3.05273e-06)
(0.000364444 -0.105796 -3.0881e-06)
(0.000200176 -0.1011 3.8386e-06)
(0.000200246 -0.1011 -4.49981e-06)
(0.000190723 -0.101385 2.61823e-06)
(0.000190756 -0.101385 -2.69554e-06)
(0.000369354 -0.104351 -5.47196e-05)
(0.000269195 -0.103527 -0.000144784)
(0.000358918 -0.104484 -5.05255e-05)
(0.000235011 -0.103528 -0.00014176)
(0.000254667 -0.0979791 -5.97892e-05)
(0.000869816 -0.0951935 -0.000374101)
(0.00026613 -0.0981543 -5.56994e-05)
(0.000833686 -0.0949892 -0.000371133)
(-0.00524289 -0.104516 0.000130884)
(0.00486449 -0.106915 0.494389)
(-0.00532351 -0.104562 0.00011873)
(0.00488093 -0.107372 0.494419)
(-0.00190939 -0.096873 0.00041674)
(0.00172451 -0.103155 0.500586)
(-0.00197869 -0.0965779 0.000404339)
(0.00176696 -0.103973 0.500595)
(0.00484384 -0.10604 -0.494283)
(-0.00509634 -0.104298 -0.000150969)
(0.00485197 -0.106471 -0.494311)
(-0.00516747 -0.104427 -0.000141354)
(0.00165432 -0.101698 -0.500564)
(-0.00179458 -0.097176 -0.000437873)
(0.00168784 -0.102397 -0.50057)
(-0.00185052 -0.0970675 -0.000427031)
(0.000344347 -0.103415 0.00014839)
(0.000398673 -0.104052 6.19353e-05)
(0.000304479 -0.103489 0.000146779)
(0.000382216 -0.10421 5.83896e-05)
(0.000950994 -0.0954742 0.000378843)
(0.000232811 -0.0976363 6.8316e-05)
(0.000909574 -0.0953576 0.00037572)
(0.000241803 -0.097809 6.3273e-05)
(0.000430069 -0.105133 7.50818e-06)
(0.000430218 -0.105133 -7.70617e-06)
(0.000407847 -0.105366 6.24289e-06)
(0.000407808 -0.105365 -6.17406e-06)
(0.000216163 -0.100505 6.04711e-06)
(0.00021629 -0.100504 -7.88626e-06)
(0.000208237 -0.100806 6.21883e-06)
(0.000208195 -0.100806 -4.99672e-06)
(0.000399227 -0.104051 -6.18344e-05)
(0.000343604 -0.103414 -0.000148278)
(0.000381821 -0.104208 -5.86185e-05)
(0.00030472 -0.103488 -0.000147046)
(0.000233155 -0.0976347 -6.65246e-05)
(0.000950937 -0.0954724 -0.000377088)
(0.000241257 -0.0978067 -6.47001e-05)
(0.000910463 -0.0953561 -0.000377413)
(-0.00510003 -0.104297 0.000151179)
(0.00484669 -0.106041 0.494277)
(-0.00517081 -0.104427 0.000141685)
(0.00485498 -0.106472 0.494305)
(-0.00179754 -0.0971766 0.000437102)
(0.00165706 -0.101701 0.500562)
(-0.00185327 -0.0970681 0.000428518)
(0.00169072 -0.102401 0.50057)
(0.00484706 -0.105191 -0.494169)
(-0.00496905 -0.103931 -0.00016683)
(0.00484472 -0.105615 -0.494196)
(-0.005033 -0.104132 -0.000159307)
(0.00160766 -0.10042 -0.500539)
(-0.0017025 -0.0971755 -0.000453598)
(0.00163162 -0.101041 -0.500546)
(-0.00174723 -0.0972066 -0.000444996)
(0.000427635 -0.103175 0.000149425)
(0.000444345 -0.103683 6.75026e-05)
(0.000384035 -0.10331 0.000148957)
(0.000419897 -0.103877 6.47058e-05)
(0.00102143 -0.0955735 0.000379533)
(0.000227525 -0.0972732 7.36812e-05)
(0.000986532 -0.0955455 0.000377574)
(0.000228642 -0.0974591 6.94461e-05)
(0.000478358 -0.104628 1.00041e-05)
(0.000478452 -0.104627 -1.01263e-05)
(0.000453537 -0.104888 8.94227e-06)
(0.00045344 -0.104887 -8.83692e-06)
(0.000231828 -0.0998746 8.70035e-06)
(0.000231907 -0.0998745 -1.00544e-05)
(0.000223886 -0.100194 9.07646e-06)
(0.000223801 -0.100194 -7.37155e-06)
(0.000444753 -0.103681 -6.73756e-05)
(0.000427092 -0.103174 -0.00014952)
(0.000419351 -0.103876 -6.50013e-05)
(0.00038448 -0.103309 -0.000149297)
(0.00022779 -0.0972716 -7.2439e-05)
(0.00102149 -0.0955725 -0.000378381)
(0.000227971 -0.0974577 -7.14172e-05)
(0.00098752 -0.0955439 -0.000379844)
(-0.00497265 -0.103931 0.000167057)
(0.00484991 -0.105192 0.494163)
(-0.00503627 -0.104131 0.00015968)
(0.00484772 -0.105615 0.49419)
(-0.00170528 -0.0971765 0.000453174)
(0.00161039 -0.100422 0.500538)
(-0.0017498 -0.0972074 0.000446859)
(0.00163447 -0.101044 0.500545)
(0.0048725 -0.104334 -0.494055)
(-0.00484809 -0.103434 -0.000179204)
(0.00485891 -0.104765 -0.494083)
(-0.00491007 -0.103698 -0.00017327)
(0.00157971 -0.0992457 -0.500516)
(-0.00162347 -0.0969416 -0.000466134)
(0.00159413 -0.0998232 -0.500522)
(-0.00166465 -0.0970854 -0.000459262)
(0.000518275 -0.102812 0.000149071)
(0.000506425 -0.103229 7.17119e-05)
(0.00047094 -0.103009 0.000149504)
(0.000473599 -0.103467 6.93952e-05)
(0.00108417 -0.0955052 0.000378883)
(0.000236374 -0.0968605 7.81464e-05)
(0.00105203 -0.0955598 0.000377976)
(0.000230525 -0.0970747 7.46112e-05)
(0.000534311 -0.104058 1.20793e-05)
(0.000534476 -0.104057 -1.21217e-05)
(0.000505313 -0.104351 1.10742e-05)
(0.000505229 -0.104351 -1.12047e-05)
(0.000249279 -0.0992013 1.06157e-05)
(0.000249437 -0.0992015 -1.21549e-05)
(0.00024036 -0.0995442 1.09846e-05)
(0.000240413 -0.099544 -9.89424e-06)
(0.000506819 -0.103228 -7.13982e-05)
(0.000517629 -0.102811 -0.000149306)
(0.000473251 -0.103465 -6.9924e-05)
(0.000471214 -0.103008 -0.000149396)
(0.000236693 -0.0968595 -7.63107e-05)
(0.00108414 -0.0955041 -0.000377687)
(0.000229903 -0.0970735 -7.6003e-05)
(0.00105282 -0.095559 -0.000379502)
(-0.00485173 -0.103434 0.000179389)
(0.00487527 -0.104334 0.494048)
(-0.00491342 -0.103698 0.000173716)
(0.00486183 -0.104765 0.494077)
(-0.00162623 -0.0969425 0.000465463)
(0.00158239 -0.0992475 0.500514)
(-0.00166721 -0.0970864 0.000460764)
(0.0015969 -0.0998253 0.500522)
(0.0049183 -0.103443 -0.493938)
(-0.00472847 -0.102819 -0.000188827)
(0.0048947 -0.103894 -0.493964)
(-0.00479036 -0.103141 -0.000184175)
(0.00156614 -0.098122 -0.500493)
(-0.00155692 -0.0965188 -0.000475825)
(0.00157366 -0.0986805 -0.500498)
(-0.00159204 -0.0967519 -0.000469759)
(0.000615632 -0.102323 0.000148134)
(0.000583483 -0.102681 7.45744e-05)
(0.000565002 -0.102583 0.000148618)
(0.000543539 -0.102967 7.29157e-05)
(0.0011447 -0.095271 0.000377532)
(0.000256511 -0.0963757 8.15538e-05)
(0.00111379 -0.0954078 0.000376649)
(0.000245664 -0.0966286 7.75284e-05)
(0.000600125 -0.103411 1.36144e-05)
(0.0006004 -0.103411 -1.38158e-05)
(0.00056615 -0.103744 1.29679e-05)
(0.000565852 -0.103744 -1.29354e-05)
(0.000269557 -0.0984718 1.19788e-05)
(0.000269888 -0.0984719 -1.40004e-05)
(0.000259227 -0.0988444 1.3119e-05)
(0.000259075 -0.0988443 -1.13638e-05)
(0.000583925 -0.10268 -7.4412e-05)
(0.000614802 -0.102322 -0.000148084)
(0.000543136 -0.102966 -7.33816e-05)
(0.000565585 -0.102582 -0.000148805)
(0.000256783 -0.0963749 -7.88706e-05)
(0.0011445 -0.0952704 -0.000376055)
(0.000245081 -0.0966276 -8.01813e-05)
(0.00111487 -0.0954074 -0.000378636)
(-0.00473218 -0.102819 0.000189041)
(0.00492101 -0.103443 0.493931)
(-0.00479361 -0.103141 0.000184624)
(0.0048976 -0.103894 0.493958)
(-0.00155967 -0.0965197 0.000474697)
(0.00156877 -0.0981234 0.500491)
(-0.00159445 -0.0967529 0.000471915)
(0.00157644 -0.0986821 0.500498)
(0.00498321 -0.102497 -0.493821)
(-0.00460556 -0.102086 -0.000196362)
(0.00495012 -0.102978 -0.493845)
(-0.00466963 -0.102467 -0.000192689)
(0.00156444 -0.0970054 -0.500471)
(-0.00149801 -0.0959344 -0.000483146)
(0.00156609 -0.0975651 -0.500475)
(-0.00152978 -0.0962456 -0.000477905)
(0.000719895 -0.101707 0.000146663)
(0.000673555 -0.102027 7.65766e-05)
(0.000665405 -0.102031 0.000147242)
(0.000627298 -0.102368 7.53862e-05)
(0.00120189 -0.0948781 0.000375476)
(0.000284842 -0.0957986 8.37426e-05)
(0.00117207 -0.0950942 0.000374776)
(0.000270083 -0.0960998 7.97418e-05)
(0.000678096 -0.102677 1.48642e-05)
(0.000678422 -0.102676 -1.50823e-05)
(0.000637847 -0.103055 1.44165e-05)
(0.000637451 -0.103055 -1.43506e-05)
(0.000294189 -0.0976735 1.31724e-05)
(0.00029456 -0.0976737 -1.53048e-05)
(0.000281687 -0.0980821 1.46449e-05)
(0.000281401 -0.0980821 -1.26779e-05)
(0.000673978 -0.102026 -7.64274e-05)
(0.000719016 -0.101706 -0.000146582)
(0.000626902 -0.102367 -7.5804e-05)
(0.00066611 -0.102031 -0.000147537)
(0.000285092 -0.0957981 -8.07344e-05)
(0.00120165 -0.0948778 -0.000374012)
(0.000269549 -0.0960992 -8.29141e-05)
(0.00117329 -0.095094 -0.000376834)
(-0.00460931 -0.102086 0.000196575)
(0.00498586 -0.102497 0.493814)
(-0.00467287 -0.102467 0.000193146)
(0.00495299 -0.102978 0.493839)
(-0.00150073 -0.0959354 0.000481864)
(0.00156705 -0.0970064 0.500469)
(-0.00153212 -0.0962466 0.000480334)
(0.00156886 -0.0975663 0.500475)
(0.00506594 -0.101476 -0.493697)
(-0.00447645 -0.101235 -0.000202261)
(0.00502406 -0.101997 -0.493724)
(-0.00454391 -0.101676 -0.00019935)
(0.00157239 -0.0958622 -0.500449)
(-0.00144289 -0.0952044 -0.000488695)
(0.00156931 -0.0964388 -0.500453)
(-0.00147299 -0.095587 -0.000484173)
(0.000833691 -0.10096 0.000145007)
(0.000776138 -0.101258 7.7861e-05)
(0.000774254 -0.10135 0.000145643)
(0.000723607 -0.101657 7.70088e-05)
(0.00125795 -0.0943288 0.000373159)
(0.000320019 -0.0951139 8.51078e-05)
(0.00122852 -0.094623 0.000372595)
(0.000301968 -0.0954706 8.12547e-05)
(0.000769563 -0.101841 1.58162e-05)
(0.000769921 -0.101841 -1.60402e-05)
(0.000722542 -0.102272 1.55167e-05)
(0.000722095 -0.102272 -1.54524e-05)
(0.000323891 -0.0967928 1.40899e-05)
(0.000324283 -0.0967931 -1.62771e-05)
(0.000308866 -0.0972443 1.57633e-05)
(0.000308514 -0.0972444 -1.37413e-05)
(0.000776553 -0.101257 -7.77116e-05)
(0.000832809 -0.100959 -0.000144922)
(0.000723238 -0.101657 -7.74284e-05)
(0.000775029 -0.101349 -0.000145945)
(0.000320259 -0.0951136 -8.19236e-05)
(0.00125771 -0.0943288 -0.000371718)
(0.000301466 -0.0954702 -8.46557e-05)
(0.0012298 -0.094623 -0.000374612)
(-0.00448024 -0.101235 0.000202473)
(0.00506854 -0.101476 0.493691)
(-0.00454718 -0.101675 0.000199817)
(0.00502688 -0.101997 0.493718)
(-0.00144557 -0.0952054 0.000487329)
(0.00157499 -0.0958631 0.500446)
(-0.00147527 -0.095588 0.000486713)
(0.00157207 -0.0964397 0.500453)
(0.00516561 -0.100364 -0.493574)
(-0.00433911 -0.10026 -0.000206881)
(0.00511531 -0.100932 -0.4936)
(-0.00441071 -0.100763 -0.000204566)
(0.00158936 -0.0946657 -0.500426)
(-0.00139044 -0.0943372 -0.000492871)
(0.0015818 -0.0952721 -0.50043)
(-0.00141923 -0.0947877 -0.000488915)
(0.000956489 -0.100076 0.000143324)
(0.00089132 -0.100363 7.85912e-05)
(0.000892628 -0.100535 0.000143958)
(0.000832476 -0.100827 7.79943e-05)
(0.00131395 -0.0936238 0.000370754)
(0.000361266 -0.0943087 8.58745e-05)
(0.00128445 -0.0939958 0.000370225)
(0.000340263 -0.0947271 8.21498e-05)
(0.000875093 -0.100893 1.65122e-05)
(0.000875472 -0.100893 -1.67413e-05)
(0.000821014 -0.101382 1.6337e-05)
(0.000820539 -0.101382 -1.62746e-05)
(0.000359043 -0.0958156 1.47443e-05)
(0.000359451 -0.0958159 -1.6999e-05)
(0.000341317 -0.0963172 1.65996e-05)
(0.000340929 -0.0963174 -1.45266e-05)
(0.000891744 -0.100362 -7.84382e-05)
(0.000955586 -0.100076 -0.000143236)
(0.00083212 -0.100826 -7.84189e-05)
(0.000893448 -0.100535 -0.000144258)
(0.000361516 -0.0943086 -8.25579e-05)
(0.0013137 -0.093624 -0.000369294)
(0.000339774 -0.094727 -8.56987e-05)
(0.00128578 -0.093996 -0.000372232)
(-0.00434291 -0.10026 0.000207092)
(0.00516818 -0.100363 0.493567)
(-0.00441398 -0.100763 0.000205041)
(0.00511809 -0.100932 0.493593)
(-0.00139306 -0.0943382 0.000491429)
(0.00159194 -0.0946663 0.500424)
(-0.00142145 -0.0947887 0.000491535)
(0.00158454 -0.0952728 0.50043)
(0.00528229 -0.099144 -0.493447)
(-0.00418983 -0.0991557 -0.000210487)
(0.00522335 -0.0997679 -0.493473)
(-0.00426824 -0.0997243 -0.000208646)
(0.001614 -0.0933926 -0.500404)
(-0.00133926 -0.0933364 -0.000495954)
(0.00160266 -0.09404 -0.500408)
(-0.00136747 -0.0938536 -0.000492433)
(0.00108916 -0.0990509 0.000141704)
(0.0010194 -0.0993334 7.88987e-05)
(0.00102011 -0.0995816 0.000142299)
(0.000954089 -0.0998656 7.84935e-05)
(0.00137046 -0.0927624 0.000368352)
(0.000408109 -0.0933716 8.61962e-05)
(0.00134068 -0.0932127 0.000367771)
(0.000384401 -0.0938573 8.25509e-05)
(0.000995103 -0.0998199 1.69953e-05)
(0.000995499 -0.0998196 -1.72308e-05)
(0.000933775 -0.100373 1.69254e-05)
(0.000933283 -0.100372 -1.68605e-05)
(0.000399808 -0.0947277 1.51703e-05)
(0.000400229 -0.094728 -1.75231e-05)
(0.00037931 -0.0952864 1.72155e-05)
(0.000378902 -0.0952866 -1.50639e-05)
(0.00101985 -0.0993328 -7.87393e-05)
(0.00108822 -0.0990505 -0.000141611)
(0.000953728 -0.099865 -7.89226e-05)
(0.00102096 -0.0995812 -0.000142596)
(0.000408389 -0.0933718 -8.27525e-05)
(0.00137019 -0.0927628 -0.000366819)
(0.000383909 -0.0938574 -8.62254e-05)
(0.00134206 -0.0932131 -0.000369817)
(-0.00419367 -0.0991554 0.000210695)
(0.00528482 -0.0991435 0.493441)
(-0.00427153 -0.0997241 0.000209127)
(0.00522609 -0.0997674 0.493467)
(-0.00134182 -0.0933374 0.000494425)
(0.00161658 -0.093393 0.500402)
(-0.00136963 -0.0938546 0.000495135)
(0.00160539 -0.0940405 0.500408)
(0.005416 -0.0978034 -0.493319)
(-0.00402398 -0.0979148 -0.000213277)
(0.00534858 -0.0984894 -0.493345)
(-0.00411096 -0.0985527 -0.000211817)
(0.00164538 -0.0920231 -0.500383)
(-0.00128771 -0.0921997 -0.000498152)
(0.00163062 -0.092721 -0.500386)
(-0.00131637 -0.0927854 -0.000494953)
(0.00123304 -0.0978772 0.00014019)
(0.00116058 -0.098159 7.88884e-05)
(0.00115829 -0.0984829 0.000140725)
(0.00108876 -0.0987647 7.86241e-05)
(0.00142791 -0.0917428 0.000365987)
(0.000460202 -0.0922925 8.61851e-05)
(0.00139757 -0.0922725 0.000365288)
(0.000433956 -0.0928505 8.25619e-05)
(0.0011298 -0.0986094 1.73047e-05)
(0.00113022 -0.0986092 -1.75492e-05)
(0.00106114 -0.0992323 1.73241e-05)
(0.00106064 -0.099232 -1.7253e-05)
(0.000446266 -0.0935155 1.5403e-05)
(0.0004467 -0.0935159 -1.78908e-05)
(0.00042296 -0.0941379 1.76563e-05)
(0.000422541 -0.0941383 -1.53899e-05)
(0.00116107 -0.0981586 -7.87205e-05)
(0.00123206 -0.0978769 -0.00014009)
(0.00108837 -0.0987642 -7.90589e-05)
(0.00115917 -0.0984826 -0.000141023)
(0.00046053 -0.0922929 -8.26006e-05)
(0.00142762 -0.0917432 -0.000364329)
(0.000433444 -0.0928507 -8.63666e-05)
(0.001399 -0.0922731 -0.000367427)
(-0.00402787 -0.0979145 0.000213481)
(0.00541849 -0.0978028 0.493312)
(-0.00411429 -0.0985524 0.000212305)
(0.00535128 -0.0984889 0.493338)
(-0.00129023 -0.0922007 0.000496513)
(0.00164795 -0.0920234 0.50038)
(-0.00131846 -0.0927864 0.000497752)
(0.00163334 -0.0927213 0.500386)
(0.00556566 -0.0963288 -0.493186)
(-0.00383988 -0.0965298 -0.000215399)
(0.00549034 -0.0970836 -0.493211)
(-0.00393623 -0.0972411 -0.000214251)
(0.00168326 -0.0905404 -0.50036)
(-0.00123054 -0.0909202 -0.000499617)
(0.00166505 -0.0912969 -0.500363)
(-0.00126251 -0.0915785 -0.000496645)
(0.00138816 -0.0965485 0.000138793)
(0.00131472 -0.0968309 7.86395e-05)
(0.00130781 -0.0972327 0.000139263)
(0.0012365 -0.0975146 7.84772e-05)
(0.00148719 -0.0905619 0.000363676)
(0.000517364 -0.0910624 8.5925e-05)
(0.00145586 -0.0911726 0.0003628)
(0.000488673 -0.091697 8.22647e-05)
(0.00127921 -0.097251 1.74739e-05)
(0.00127963 -0.0972508 -1.77298e-05)
(0.00120322 -0.0979492 1.75695e-05)
(0.00120271 -0.097949 -1.74886e-05)
(0.000498438 -0.0921669 1.54733e-05)
(0.000498882 -0.0921674 -1.81368e-05)
(0.000472319 -0.092859 1.796e-05)
(0.000471893 -0.0928594 -1.55377e-05)
(0.00131529 -0.0968306 -7.84603e-05)
(0.00138712 -0.0965482 -0.000138681)
(0.00123607 -0.0975142 -7.89197e-05)
(0.00130873 -0.0972324 -0.000139566)
(0.000517755 -0.091063 -8.21737e-05)
(0.00148686 -0.0905624 -0.000361841)
(0.000488124 -0.0916973 -8.62201e-05)
(0.00145735 -0.0911733 -0.000365084)
(-0.00384382 -0.0965295 0.000215597)
(0.00556812 -0.0963282 0.493179)
(-0.00393959 -0.0972408 0.000214744)
(0.00549301 -0.0970829 0.493205)
(-0.00123306 -0.0909211 0.000497842)
(0.00168581 -0.0905406 0.500358)
(-0.00126457 -0.0915795 0.000499566)
(0.00166776 -0.0912971 0.500363)
(0.00573113 -0.0947065 -0.493052)
(-0.00363426 -0.0949861 -0.000216967)
(0.00564778 -0.0955366 -0.493078)
(-0.00374196 -0.0957783 -0.000216077)
(0.00172692 -0.0889294 -0.500338)
(-0.00116964 -0.0894866 -0.000500466)
(0.00170593 -0.0897517 -0.500341)
(-0.0012026 -0.0902232 -0.000497637)
(0.00155535 -0.0950556 0.000137515)
(0.00148203 -0.0953397 7.82066e-05)
(0.00146866 -0.0958229 0.00013791)
(0.00139726 -0.0961061 7.81194e-05)
(0.00154821 -0.0892158 0.000361423)
(0.000579564 -0.0896727 8.54733e-05)
(0.00151601 -0.0899096 0.000360317)
(0.000548434 -0.0903881 8.17209e-05)
(0.00144327 -0.0957338 1.75305e-05)
(0.00144371 -0.0957337 -1.77996e-05)
(0.00135999 -0.0965127 1.76923e-05)
(0.00135948 -0.0965125 -1.75981e-05)
(0.000556294 -0.0906701 1.5409e-05)
(0.000556749 -0.0906706 -1.82881e-05)
(0.000527388 -0.0914377 1.81572e-05)
(0.000526957 -0.0914382 -1.55367e-05)
(0.00148267 -0.0953394 -7.80127e-05)
(0.00155424 -0.0950554 -0.000137388)
(0.00139677 -0.0961058 -7.85716e-05)
(0.00146965 -0.0958226 -0.000138222)
(0.000580033 -0.0896734 -8.15225e-05)
(0.00154782 -0.0892164 -0.000359361)
(0.000547832 -0.0903885 -8.58563e-05)
(0.00151756 -0.0899104 -0.000362798)
(-0.0036383 -0.0949858 0.000217158)
(0.00573356 -0.0947058 0.493045)
(-0.00374536 -0.0957781 0.000216578)
(0.00565043 -0.095536 0.493071)
(-0.00117211 -0.0894876 0.000498522)
(0.00172947 -0.0889294 0.500336)
(-0.00120461 -0.0902242 0.000500709)
(0.00170863 -0.0897518 0.500341)
(0.0059124 -0.0929265 -0.492914)
(-0.00340256 -0.0932768 -0.000218065)
(0.0058213 -0.0938365 -0.49294)
(-0.00352334 -0.0941523 -0.000217392)
(0.00177681 -0.0871769 -0.500316)
(-0.00110515 -0.087888 -0.000500759)
(0.00175223 -0.0880716 -0.500319)
(-0.00114064 -0.0887089 -0.00049803)
(0.0017355 -0.0933925 0.000136392)
(0.00166223 -0.0936775 7.76262e-05)
(0.00164244 -0.0942455 0.000136694)
(0.00157123 -0.0945303 7.75957e-05)
(0.00161233 -0.0876999 0.00035921)
(0.000647067 -0.0881156 8.48393e-05)
(0.00157817 -0.0884793 0.000357851)
(0.000613326 -0.0889156 8.0977e-05)
(0.00162156 -0.0940484 1.74972e-05)
(0.00162202 -0.0940483 -1.77785e-05)
(0.00153128 -0.0949125 1.77165e-05)
(0.00153076 -0.0949123 -1.76052e-05)