/*--------------------------------*- C++ -*----------------------------------*\
  =========                 |
  \\      /  F ield         | OpenFOAM: The Open Source CFD Toolbox
   \\    /   O peration     | Website:  https://openfoam.org
    \\  /    A nd           | Version:  9
     \\/     M anipulation  |
\*---------------------------------------------------------------------------*/
FoamFile
{
    format      ascii;
    class       volScalarField;
    location    "5";
    object      epsilon;
}
// * * * * * * * * * * * * * * * * * * * * * * * * * * * * * * * * * * * * * //

dimensions      [0 2 -3 0 0 0 0];

internalField   nonuniform List<scalar> 
4545
(
14.7951
20.5625
18.0009
20.5626
14.7952
29.1343
29.4253
26.4398
29.4254
29.1344
35.6241
34.442
31.1159
34.442
35.6242
39.1135
37.5743
34.1471
37.5743
39.1136
41.3202
39.6665
36.204
39.6666
41.3203
42.8162
41.1115
37.6367
41.1119
42.817
43.8406
42.1138
38.6416
42.1149
43.8432
44.5333
42.799
39.3391
42.8006
44.537
44.975
43.2508
39.8091
43.252
44.9843
45.2473
43.5283
40.1074
43.5299
45.2612
45.4
43.6676
40.2709
43.6718
45.4051
45.4325
43.6973
40.3249
43.7008
45.4277
45.3897
43.6484
40.2985
43.648
45.3841
45.2732
43.5162
40.1973
43.5135
45.2544
45.0853
43.3187
40.0253
43.3101
45.0531
44.8426
43.0663
39.8002
43.0537
44.8255
44.54
42.7534
39.52
42.7405
44.5181
44.1903
42.3865
39.1877
42.3752
44.1565
43.8109
41.9708
38.8057
41.9624
43.7675
43.3616
41.4981
38.3705
41.491
43.3029
42.8152
40.9618
37.8807
40.9657
42.8189
42.2133
40.3654
37.3343
40.3826
42.2693
41.5854
39.7108
36.7288
39.7321
41.6286
40.9006
38.9939
36.0622
39.0189
40.9593
40.1322
38.2141
35.3345
38.2421
40.2203
39.303
37.3689
34.5455
37.3976
39.3913
38.4139
36.4582
33.6925
36.4812
38.4914
37.4871
35.4842
32.7832
35.4907
37.5026
36.4863
34.4407
31.8336
34.4416
36.4784
35.3809
33.326
30.8257
33.3286
35.3935
34.2415
32.1519
29.7613
32.1523
34.2418
33.0607
30.9225
28.6434
30.9219
33.0564
31.8088
29.6338
27.4735
29.6331
31.8045
30.4949
28.2911
26.2541
28.2909
30.4928
29.1199
26.9009
24.988
26.9014
29.1204
27.6975
25.4688
23.6773
25.4695
27.6986
26.235
23.9984
22.322
23.9989
26.2358
24.7391
22.4839
20.9171
22.4842
24.7396
23.1916
20.8911
19.4546
20.8914
23.1919
18.1574
17.7721
15.0935
17.7721
18.1575
24.1174
22.1014
19.3065
22.1014
24.1174
27.4931
24.9954
22.0268
24.9954
27.4931
29.4014
26.7183
23.7313
26.7183
29.4014
30.5275
27.7858
24.8204
27.7859
30.5276
31.2191
28.4542
25.5241
28.4544
31.2197
31.6371
28.8644
25.9738
28.8645
31.6387
31.8611
29.0984
26.249
29.0992
31.8685
31.9606
29.2092
26.4002
29.2106
31.9746
31.9733
29.2322
26.4619
29.2349
31.9906
31.9263
29.1928
26.4566
29.1961
31.9461
31.8366
29.1005
26.3995
29.1025
31.8421
31.7029
28.966
26.2968
28.9667
31.6969
31.5436
28.7995
26.1603
28.7975
31.5374
31.3555
28.6047
25.9945
28.5992
31.3419
31.1363
28.3846
25.8036
28.38
31.1294
30.8953
28.1403
25.5886
28.1354
30.9021
30.6566
27.8763
25.3516
27.8692
30.655
30.3902
27.5922
25.0936
27.5846
30.3639
30.0725
27.2816
24.8124
27.276
30.0375
29.735
26.9446
24.5075
26.9482
29.7206
29.3575
26.5823
24.1785
26.5956
29.3904
28.9764
26.1992
23.8245
26.2139
29.0067
28.5716
25.7923
23.4451
25.8097
28.5937
28.1178
25.3576
23.0401
25.3793
28.1589
27.6519
24.8987
22.6092
24.9191
27.6916
27.1473
24.4145
22.1521
24.43
27.1923
26.6115
23.9061
21.6712
23.9129
26.6346
26.0351
23.3705
21.1691
23.3737
26.0411
25.4221
22.8064
20.6419
22.8104
25.4405
24.8154
22.2212
20.0896
22.2231
24.8332
24.1899
21.6139
19.5131
21.6141
24.1913
23.5052
20.9791
18.911
20.98
23.5042
22.795
20.3186
18.283
20.32
22.7947
22.0567
19.6327
17.6292
19.6338
22.0576
21.2804
18.9211
16.9488
18.9221
21.2818
20.4773
18.1821
16.2394
18.1829
20.4784
19.654
17.4062
15.4954
17.4067
19.6547
18.7871
16.5556
14.7102
16.556
18.7875
19.3128
18.2666
16.2847
18.2666
19.3128
23.0144
21.3415
19.4577
21.3415
23.0144
25.2494
23.4828
21.5886
23.4828
25.2494
26.6108
24.8108
22.9514
24.8108
26.6107
27.4232
25.6301
23.8141
25.6301
27.4232
27.9017
26.1233
24.3512
26.1234
27.9018
28.1644
26.4027
24.6717
26.4028
28.1648
28.2825
26.5371
24.8441
26.5373
28.2834
28.3017
26.5709
24.9126
26.5712
28.3034
28.256
26.5361
24.9079
26.5368
28.2583
28.1587
26.448
24.8494
26.4491
28.1613
28.0235
26.3186
24.7462
26.3197
28.0248
27.8585
26.1579
24.6101
26.1586
27.8585
27.6718
25.9732
24.4478
25.9731
27.6704
27.4661
25.7681
24.2639
25.767
27.4628
27.2431
25.5454
24.0613
25.5437
27.2398
27.0043
25.3061
23.8415
25.3044
27.0018
26.7518
25.0516
23.6057
25.0501
26.749
26.4846
24.7823
23.3544
24.7814
26.4806
26.1984
24.4967
23.0871
24.4971
26.1951
25.8929
24.1944
22.8033
24.1968
25.895
25.5676
23.8748
22.5023
23.8797
25.5768
25.2246
23.5379
22.1835
23.5441
25.2362
24.8617
23.1832
21.8464
23.1901
24.8745
24.4757
22.8102
21.4909
22.8175
24.4909
24.0686
22.4187
21.1169
22.4256
24.0834
23.6394
22.0088
20.7242
22.014
23.6518
23.1883
21.5804
20.313
21.5834
23.1954
22.7137
21.133
19.8837
21.1346
22.7169
22.2161
20.6668
19.4362
20.668
22.2188
21.7001
20.1831
18.9707
20.184
21.7023
21.1654
19.6824
18.4874
19.6832
21.1665
20.61
19.1643
17.9862
19.1651
20.6109
20.0356
18.6291
17.467
18.63
20.0367
19.4433
18.0769
16.9297
18.0778
19.4444
18.8338
17.5077
16.3737
17.5084
18.8349
18.2098
16.9203
15.7981
16.9209
18.2107
17.5767
16.3103
15.2012
16.3107
17.5773
16.9185
15.6595
14.5839
15.6598
16.9189
19.7115
18.6955
17.1613
18.6955
19.7115
22.5834
21.1978
19.8016
21.1978
22.5834
24.33
22.9477
21.5878
22.9477
24.3299
25.4358
24.0628
22.7511
24.0628
25.4358
26.1084
24.7582
23.492
24.7583
26.1083
26.5
25.1727
23.9475
25.1727
26.5
26.704
25.3973
24.2087
25.3974
26.7041
26.7802
25.4916
24.3354
25.4917
26.7804
26.7689
25.4949
24.3672
25.495
26.7692
26.6989
25.437
24.3339
25.4372
26.6994
26.5809
25.3283
24.2487
25.3287
26.5815
26.4296
25.1841
24.125
25.1845
26.4301
26.2527
25.0125
23.9723
25.0129
26.253
26.0565
24.8199
23.7967
24.82
26.0564
25.8442
24.6097
23.6024
24.6095
25.8436
25.6178
24.3846
23.3921
24.3843
25.617
25.3786
24.1461
23.1676
24.1458
25.3779
25.127
23.8949
22.9299
23.8947
25.1264
24.8632
23.6316
22.6794
23.6317
24.8627
24.5857
23.3555
22.4161
23.356
24.5858
24.2937
23.0662
22.1395
23.0674
24.2951
23.9865
22.7634
21.8493
22.7653
23.9895
23.6635
22.4465
21.545
22.4489
23.6675
23.324
22.1153
21.2263
22.1179
23.3286
22.9673
21.7694
20.893
21.772
22.9722
22.5932
21.4087
20.5451
21.4111
22.598
22.2019
21.0334
20.1826
21.0353
22.2059
21.7937
20.6435
19.8056
20.6448
21.7963
21.3685
20.2392
19.4142
20.24
21.3701
20.927
19.8208
19.0087
19.8214
20.9282
20.4703
19.3887
18.5893
19.3893
20.4713
19.9994
18.9435
18.1561
18.944
20.0002
19.5148
18.4853
17.7093
18.4859
19.5156
19.0175
18.0148
17.249
18.0153
19.0183
18.5085
17.5324
16.7758
17.5329
18.5093
17.9896
17.039
16.2899
17.0395
17.9903
17.4643
16.5356
15.7919
16.536
17.4649
16.9406
16.0222
15.2827
16.0225
16.941
16.4129
15.4916
14.7686
15.4918
16.4132
19.8925
18.9626
17.705
18.9626
19.8925
22.3703
21.1599
20.0336
21.1599
22.3703
23.8709
22.6895
21.6095
22.6895
23.8709
24.839
23.6779
22.6462
23.6779
24.839
25.4361
24.3005
23.3111
24.3005
25.4361
25.7843
24.6716
23.719
24.6716
25.7842
25.9613
24.8687
23.948
24.8687
25.9613
26.0194
24.944
24.0511
24.944
26.0195
25.9958
24.9338
24.0648
24.9339
25.9958
25.9146
24.8644
24.0167
24.8645
25.9147
25.7878
24.7466
23.918
24.7467
25.788
25.6292
24.5951
23.7834
24.5952
25.6294
25.4463
24.4177
23.6215
24.4179
25.4465
25.245
24.2205
23.4381
24.2206
25.2452
25.0287
24.007
23.2375
24.007
25.0287
24.7996
23.7799
23.0223
23.7799
24.7995
24.559
23.5409
22.7945
23.5409
24.5589
24.3076
23.2908
22.5551
23.2909
24.3075
24.0455
23.0302
22.3047
23.0304
24.0456
23.7723
22.7591
22.0436
22.7594
23.7726
23.4874
22.4773
21.7717
22.4778
23.4881
23.1905
22.1846
21.4888
22.1854
23.1915
22.881
21.8808
21.1949
21.8817
22.8824
22.5586
21.5658
20.8897
21.5667
22.5601
22.2231
21.2394
20.5734
21.2404
22.2248
21.8747
20.902
20.246
20.9029
21.8763
21.5136
20.5535
19.9076
20.5543
21.515
21.1403
20.1943
19.5584
20.1949
21.1413
20.7551
19.8246
19.1987
19.8251
20.7559
20.3587
19.4447
18.8284
19.4451
20.3593
19.9517
19.0548
18.4477
19.0552
19.9522
19.5346
18.6552
18.0567
18.6555
19.5351
19.1081
18.2461
17.6554
18.2465
19.1086
18.6729
17.8281
17.244
17.8284
18.6733
18.23
17.4018
16.8227
17.4021
18.2304
17.7816
16.9688
16.3927
16.9691
17.782
17.3321
16.5311
15.9563
16.5313
17.3324
16.8903
16.0905
15.5171
16.0907
16.8905
16.4551
15.6448
15.0822
15.645
16.4553
19.9955
19.1295
18.0425
19.1295
19.9955
22.2545
21.1501
20.1808
21.1501
22.2545
23.6187
22.5501
21.6272
22.5501
23.6187
24.5071
23.4613
22.5837
23.4613
24.5071
25.0601
24.0392
23.2004
24.0392
25.0601
25.3835
24.3844
23.5788
24.3844
25.3835
25.5462
24.5658
23.7887
24.5659
25.5462
25.5953
24.631
23.8786
24.631
25.5953
25.5655
24.614
23.8823
24.614
25.5655
25.4783
24.5381
23.8255
24.5381
25.4783
25.3464
24.415
23.7189
24.415
25.3465
25.183
24.2587
23.5774
24.2588
25.183
24.9955
24.077
23.4092
24.0771
24.9956
24.7899
23.876
23.2202
23.876
24.79
24.5696
23.6592
23.0145
23.6592
24.5697
24.3372
23.4296
22.7953
23.4296
24.3372
24.0944
23.189
22.5644
23.1891
24.0944
23.8419
22.9387
22.3232
22.9388
23.8419
23.5803
22.6794
22.0727
22.6795
23.5804
23.3097
22.4114
21.8133
22.4115
23.3098
23.0301
22.135
21.5454
22.1352
23.0303
22.7414
21.8504
21.2691
21.8507
22.7418
22.4436
21.5577
20.9847
21.5581
22.4441
22.1369
21.2572
20.6924
21.2576
22.1374
21.8214
20.949
20.3925
20.9494
21.822
21.4976
20.6335
20.0852
20.6339
21.4982
21.1659
20.311
19.7708
20.3114
21.1665
20.827
19.982
19.4496
19.9823
20.8275
20.4812
19.6465
19.1216
19.6468
20.4816
20.129
19.3047
18.7869
19.3049
20.1293
19.7706
18.9566
18.4453
18.9569
19.7709
19.4063
18.6021
18.0962
18.6023
19.4066
19.036
18.241
17.7395
18.2412
19.0363
18.6596
17.8732
17.3753
17.8733
18.6599
18.2775
17.4993
17.0043
17.4994
18.2778
17.8919
17.1211
16.6278
17.1213
17.8921
17.5078
16.7419
16.248
16.742
17.508
17.1358
16.3655
15.8694
16.3656
17.136
16.7783
15.9914
15.4998
15.9915
16.7784
20.0595
19.2349
18.2541
19.2349
20.0595
22.1876
21.1484
20.2742
21.1484
22.1876
23.4723
22.4705
21.6406
22.4705
23.4723
24.3134
23.3346
22.547
23.3346
24.3134
24.8397
23.8847
23.1331
23.8847
24.8396
25.148
24.2138
23.4928
24.2138
25.148
25.302
24.3856
23.6909
24.3856
25.302
25.3455
24.4445
23.7723
24.4445
25.3455
25.3114
24.4228
23.7696
24.4228
25.3114
25.2196
24.3422
23.7065
24.3422
25.2196
25.0832
24.2148
23.5941
24.2148
25.0832
24.915
24.0541
23.447
24.0541
24.915
24.7226
23.868
23.2733
23.8681
24.7226
24.5121
23.6626
23.079
23.6627
24.5121
24.2871
23.4419
22.8684
23.4419
24.2871
24.0504
23.2088
22.6449
23.2089
24.0504
23.8042
22.9657
22.4107
22.9658
23.8042
23.5496
22.714
22.1674
22.714
23.5495
23.2876
22.4549
21.9163
22.4549
23.2876
23.0188
22.189
21.6582
22.1891
23.0188
22.7436
21.9172
21.3939
21.9173
22.7437
22.4626
21.6399
21.1241
21.6401
22.4627
22.1763
21.3579
20.8493
21.358
22.1765
21.8852
21.0716
20.5701
21.0718
21.8854
21.59
20.7817
20.2872
20.7819
21.5903
21.2915
20.4887
20.001
20.4889
21.2918
20.9903
20.1933
19.712
20.1935
20.9906
20.6871
19.8957
19.4205
19.8959
20.6874
20.3823
19.5962
19.1264
19.5964
20.3825
20.0761
19.2946
18.8295
19.2947
20.0763
19.7682
18.9903
18.5292
18.9904
19.7684
19.4577
18.6828
18.2251
18.6829
19.4579
19.1444
18.3717
17.9164
18.3719
19.1446
18.8282
18.057
17.6028
18.0571
18.8284
18.5096
17.7387
17.2844
17.7388
18.5097
18.1899
17.4182
16.962
17.4183
18.19
17.8734
17.0977
16.6379
17.0978
17.8736
17.5697
16.781
16.3161
16.7811
17.5698
17.2818
16.4685
16.0041
16.4685
17.2819
20.0989
19.2996
18.3834
19.2996
20.0989
22.1487
21.1489
20.3317
21.1489
22.1487
23.3872
22.4251
21.6503
22.4251
23.3871
24.2004
23.2611
22.5264
23.2611
24.2004
24.7104
23.7942
23.0936
23.7942
24.7104
25.0091
24.113
23.4414
24.113
25.0091
25.1569
24.2782
23.6313
24.2782
25.1569
25.1957
24.3322
23.7067
24.3322
25.1957
25.1575
24.3064
23.6988
24.3064
25.1575
25.0607
24.2211
23.6302
24.2211
25.0607
24.9192
24.089
23.5124
24.089
24.9192
24.7454
23.9233
23.3596
23.9233
24.7454
24.5471
23.732
23.1801
23.732
24.5471
24.3304
23.5213
22.98
23.5213
24.3304
24.0995
23.2955
22.7641
23.2955
24.0995
23.8575
23.058
22.5356
23.058
23.8574
23.6067
22.8111
22.2973
22.8112
23.6067
23.3489
22.5569
22.0512
22.5569
23.3489
23.0855
22.2969
21.7988
22.2969
23.0855
22.8176
22.0323
21.5415
22.0323
22.8176
22.5463
21.7642
21.2805
21.7642
22.5463
22.2725
21.4937
21.0169
21.4938
22.2725
21.9974
21.2219
20.7516
21.222
21.9974
21.7219
20.9498
20.4858
20.9499
21.722
21.4474
20.6785
20.2205
20.6786
21.4475
21.1748
20.4087
19.9563
20.4088
21.175
20.9052
20.1414
19.694
20.1415
20.9053
20.6393
19.877
19.434
19.8771
20.6394
20.3775
19.6155
19.1762
19.6156
20.3776
20.1195
19.3566
18.9202
19.3567
20.1197
19.8651
19.0998
18.6654
19.0999
19.8653
19.6135
18.8442
18.4104
18.8443
19.6136
19.3631
18.5882
18.1541
18.5883
19.3633
19.1127
18.3309
17.8953
18.331
19.1128
18.8614
18.0717
17.6332
18.0718
18.8616
18.6102
17.8111
17.368
17.8111
18.6103
18.3625
17.5508
17.1013
17.5509
18.3626
18.1272
17.2938
16.8361
17.2939
18.1273
17.9073
17.0404
16.5794
17.0404
17.9074
20.1204
19.3343
18.4529
19.3343
20.1204
22.1287
21.1498
20.363
21.1498
22.1287
23.3428
22.4018
21.6563
22.4018
23.3428
24.1411
23.2227
22.516
23.2227
24.1411
24.6417
23.7461
23.0724
23.7461
24.6416
24.9339
24.0582
23.4127
24.0582
24.9339
25.0765
24.2184
23.5969
24.2184
25.0765
25.1105
24.2677
23.667
24.2677
25.1105
25.0675
24.2375
23.6543
24.2375
25.0675
24.9649
24.1469
23.58
24.1469
24.9649
24.8171
24.0092
23.4564
24.0092
24.8171
24.6364
23.8375
23.2974
23.8375
24.6364
24.4308
23.6398
23.1114
23.6399
24.4308
24.2068
23.4228
22.9049
23.4228
24.2067
23.9686
23.1907
22.6826
23.1907
23.9686
23.7198
22.9474
22.4484
22.9474
23.7198
23.4632
22.6956
22.2051
22.6956
23.4632
23.201
22.4377
21.9552
22.4377
23.2009
22.935
22.1756
21.7006
22.1756
22.9349
22.6668
21.911
21.4432
21.911
22.6668
22.3981
21.6455
21.1846
21.6455
22.3981
22.1305
21.3808
20.9263
21.3808
22.1305
21.8656
21.1184
20.6701
21.1184
21.8657
21.6052
20.8598
20.4172
20.8599
21.6052
21.3508
20.6066
20.1692
20.6067
21.3509
21.1041
20.3601
19.9273
20.3602
21.1042
20.8664
20.1213
19.6924
20.1214
20.8665
20.6388
19.891
19.4652
19.8911
20.6389
20.4217
19.6695
19.2458
19.6696
20.4218
20.2153
19.4565
19.0338
19.4566
20.2154
20.0187
19.251
18.828
19.2511
20.0188
19.8303
19.0514
18.6268
19.0515
19.8304
19.6481
18.8557
18.4282
18.8558
19.6482
19.4697
18.6618
18.23
18.6619
19.4698
19.2931
18.4681
18.0304
18.4681
19.2932
19.1178
18.2735
17.8282
18.2736
19.1178
18.9457
18.0788
17.6237
18.0789
18.9458
18.7846
17.8855
17.4187
17.8855
18.7847
18.6367
17.693
17.2187
17.6931
18.6368
20.1271
19.3442
18.4733
19.3442
20.1271
22.1236
21.1505
20.3728
21.1505
22.1236
23.3304
22.3953
21.6586
22.3953
23.3304
24.1234
23.2111
22.5128
23.2111
24.1234
24.6196
23.7303
23.0648
23.7303
24.6196
24.9076
24.0386
23.4011
24.0386
24.9076
25.0457
24.1946
23.581
24.1946
25.0457
25.0745
24.2394
23.6466
24.2394
25.0745
25.0259
24.2043
23.629
24.2043
25.0259
24.9163
24.1075
23.5486
24.1075
24.9164
24.7611
23.9633
23.4186
23.9633
24.7611
24.5722
23.7844
23.2527
23.7844
24.5722
24.358
23.5793
23.0594
23.5793
24.358
24.1251
23.3546
22.8455
23.3546
24.1251
23.8783
23.115
22.616
23.115
23.8783
23.6212
22.8645
22.3749
22.8646
23.6212
23.3572
22.6064
22.1255
22.6064
23.3572
23.0888
22.3432
21.8706
22.3432
23.0888
22.8185
22.0775
21.6126
22.0775
22.8184
22.5482
21.8112
21.3536
21.8112
22.5482
22.2804
21.5467
21.096
21.5467
22.2803
22.0171
21.286
20.8418
21.286
22.0171
21.7606
21.0313
20.593
21.0313
21.7606
21.5133
20.7847
20.3517
20.7847
21.5134
21.2775
20.5482
20.1199
20.5482
21.2776
21.0553
20.3237
19.8993
20.3237
21.0554
20.8487
20.1128
19.6915
20.1128
20.8488
20.6591
19.9167
19.4974
19.9168
20.6592
20.4876
19.7362
19.3175
19.7362
20.4877
20.3349
19.5712
19.1517
19.5713
20.335
20.2001
19.4206
18.9987
19.4207
20.2002
20.0809
19.2824
18.8565
19.2824
20.081
19.9745
19.1537
18.7221
19.1538
19.9746
19.8776
19.0314
18.5924
19.0315
19.8777
19.7865
18.9123
18.464
18.9123
19.7865
19.6986
18.7935
18.3338
18.7936
19.6987
19.6139
18.6736
18.2001
18.6736
19.614
19.538
18.552
18.0625
18.552
19.538
19.4713
18.4263
17.9245
18.4264
19.4713
20.1197
19.3305
18.4475
19.3305
20.1197
22.1322
21.1505
20.3622
21.1505
22.1322
23.3473
22.404
21.6572
22.404
23.3473
24.144
23.2239
22.5162
23.2239
24.144
24.6406
23.7442
23.0697
23.7442
24.6406
24.9265
24.0511
23.4051
24.0511
24.9265
25.0606
24.204
23.5824
24.204
25.0606
25.0838
24.2442
23.6438
24.2442
25.0838
25.0289
24.2037
23.6213
24.2037
25.0289
24.9113
24.1002
23.5346
24.1002
24.9113
24.7475
23.9485
23.3977
23.9485
24.7475
24.5493
23.7617
23.2244
23.7617
24.5494
24.3254
23.5482
23.0232
23.5482
24.3254
24.0825
23.3148
22.8012
23.3148
24.0825
23.8256
23.0664
22.5635
23.0665
23.8256
23.5588
22.8075
22.3146
22.8075
23.5588
23.2856
22.5415
22.0579
22.5415
23.2856
23.0092
22.2715
21.7967
22.2715
23.0092
22.7324
22.0002
21.5337
22.0002
22.7324
22.4578
21.7304
21.2716
21.7304
22.4578
22.1882
21.4646
21.013
21.4646
22.1882
21.9265
21.2055
20.7606
21.2055
21.9264
21.6754
20.9558
20.517
20.9558
21.6755
21.4382
20.7183
20.2849
20.7184
21.4382
21.2178
20.4958
20.0668
20.4958
21.2178
21.0172
20.2908
19.8653
20.2908
21.0172
20.8392
20.1057
19.6826
20.1058
20.8393
20.6862
19.9425
19.5205
19.9426
20.6863
20.5601
19.8027
19.3802
19.8027
20.5602
20.4623
19.6869
19.262
19.6869
20.4624
20.3925
19.5943
19.165
19.5944
20.3925
20.3487
19.523
19.0871
19.5231
20.3488
20.328
19.4697
19.025
19.4698
20.3281
20.3256
19.43
18.9742
19.4301
20.3256
20.3355
19.3987
18.9294
19.3987
20.3356
20.3532
19.3704
18.885
19.3704
20.3533
20.3748
19.3403
18.8359
19.3403
20.3748
20.4021
19.3044
18.7784
19.3044
20.4022
20.4325
19.2567
18.7123
19.2567
20.4326
20.0968
19.2912
18.3717
19.2912
20.0968
22.1557
21.1499
20.3296
21.1499
22.1558
23.3965
22.4295
21.652
22.4295
23.3965
24.207
23.2641
22.5271
23.2641
24.207
24.7094
23.7913
23.0889
23.7913
24.7094
24.9958
24.0999
23.4271
24.0999
24.9958
25.1268
24.251
23.6037
24.251
25.1268
25.1445
24.2869
23.662
24.2869
25.1445
25.0828
24.241
23.6349
24.241
25.0828
24.9566
24.1303
23.5421
24.1303
24.9567
24.7834
23.9708
23.3983
23.9708
24.7835
24.5752
23.7754
23.2173
23.7755
24.5753
24.3406
23.5529
23.0081
23.5529
24.3406
24.0867
23.3101
22.7776
23.3101
24.0868
23.8187
23.0523
22.5313
23.0523
23.8187
23.5408
22.7839
22.2738
22.7839
23.5408
23.2571
22.5088
22.0089
22.5089
23.2571
22.9708
22.2304
21.7401
22.2304
22.9708
22.6853
21.9518
21.4706
21.9518
22.6853
22.4037
21.676
21.2033
21.676
22.4037
22.1292
21.4061
20.9414
21.4061
22.1292
21.8653
21.1454
20.6881
21.1455
21.8653
21.6155
20.8972
20.4465
20.8972
21.6155
21.3837
20.6649
20.2199
20.665
21.3837
21.1738
20.4521
20.0119
20.4522
21.1739
20.9899
20.2624
19.8257
20.2625
20.99
20.8361
20.0992
19.6646
20.0993
20.8362
20.7161
19.9657
19.5316
19.9658
20.7162
20.6332
19.8645
19.429
19.8646
20.6333
20.59
19.7975
19.3583
19.7976
20.5901
20.5879
19.7651
19.3196
19.7652
20.588
20.6255
19.7665
19.3118
19.7666
20.6256
20.7023
19.798
19.331
19.798
20.7023
20.8117
19.8557
19.3731
19.8557
20.8118
20.9464
19.9314
19.43
19.9315
20.9465
21.0976
20.0164
19.4926
20.0165
21.0977
21.2566
20.101
19.551
20.1011
21.2566
21.4186
20.175
19.5957
20.1751
21.4187
21.5746
20.2257
19.6199
20.2258
21.5747
20.0547
19.2202
18.2342
19.2202
20.0547
22.198
21.1489
20.2698
21.1489
22.198
23.4872
22.4773
21.643
22.4772
23.4872
24.3251
23.3401
22.5487
23.3401
24.3251
24.8408
23.8821
23.1275
23.8821
24.8408
25.1317
24.1969
23.4739
24.1969
25.1317
25.2616
24.3486
23.6528
24.3486
25.2617
25.2746
24.3816
23.7098
24.3816
25.2747
25.2066
24.3309
23.6795
24.331
25.2067
25.0719
24.2136
23.5815
24.2136
25.072
24.8893
24.0465
23.4315
24.0465
24.8894
24.6708
23.8427
23.2435
23.8427
24.6709
24.4253
23.611
23.0265
23.6111
24.4253
24.1599
23.3587
22.7878
23.3587
24.16
23.8799
23.0909
22.5329
23.091
23.88
23.59
22.8125
22.2666
22.8125
23.59
23.2942
22.5274
21.993
22.5274
23.2942
22.9962
22.2391
21.7157
22.2391
22.9962
22.6997
21.9513
21.4382
21.9513
22.6997
22.4081
21.6672
21.1639
21.6671
22.408
22.125
21.3903
20.8962
21.3903
22.125
21.8546
21.1244
20.6387
21.1244
21.8546
21.601
20.8732
20.3953
20.8733
21.6011
21.3688
20.6411
20.1698
20.6411
21.3689
21.1629
20.4324
19.9667
20.4324
21.163
20.9887
20.2517
19.7903
20.2518
20.9888
20.8517
20.1041
19.6452
20.1042
20.8518
20.7577
19.9942
19.5359
19.9943
20.7578
20.7123
19.9267
19.4667
19.9268
20.7124
20.7204
19.9057
19.441
19.9057
20.7205
20.7851
19.933
19.4606
19.9331
20.7852
20.912
20.0117
19.5272
20.0117
20.9121
21.0995
20.1406
19.64
20.1406
21.0996
21.3441
20.3147
19.7931
20.3147
21.3441
21.6377
20.5254
19.9778
20.5255
21.6378
21.9679
20.7602
20.1811
20.7602
21.9679
22.3184
21.002
20.386
21.0021
22.3185
22.6736
21.2303
20.573
21.2304
22.6736
23.0091
21.4193
20.7235
21.4193
23.0092
19.9852
19.105
18.0106
19.105
19.9853
22.2674
21.1484
20.172
21.1484
22.2674
23.6396
22.5585
21.6291
22.5585
23.6396
24.5255
23.4697
22.5863
23.4696
24.5255
25.066
24.0384
23.1948
24.0384
25.0661
25.368
24.3662
23.557
24.3662
25.368
25.5005
24.5227
23.7434
24.5227
25.5006
25.5111
24.5555
23.8026
24.5556
25.5113
25.4383
24.5021
23.7717
24.5022
25.4386
25.2965
24.3798
23.6711
24.3799
25.2968
25.1055
24.2064
23.5167
24.2065
25.1057
24.8774
23.9953
23.3233
23.9954
24.8777
24.6215
23.7554
23.1
23.7555
24.6216
24.3449
23.4942
22.8543
23.4943
24.345
24.0529
23.2169
22.5917
23.2169
24.053
23.7504
22.9283
22.3172
22.9283
23.7504
23.4415
22.6326
22.0349
22.6326
23.4416
23.1302
22.3336
21.7487
22.3336
23.1303
22.8205
22.035
21.4624
22.035
22.8204
22.5158
21.7403
21.1795
21.7403
22.5158
22.2205
21.4535
20.9037
21.4535
22.2204
21.9388
21.1785
20.6391
21.1785
21.9388
21.6755
20.9197
20.3899
20.9198
21.6756
21.4359
20.6819
20.1607
20.682
21.4361
21.2259
20.4704
19.9566
20.4706
21.2262
21.0521
20.2911
19.7831
20.2912
21.0524
20.9218
20.1503
19.6463
20.1504
20.9221
20.8432
20.0549
19.5527
20.055
20.8434
20.8251
20.0123
19.509
20.0124
20.8252
20.8744
20.0291
19.5214
20.0292
20.8745
21.0028
20.1121
19.5956
20.1122
21.0029
21.2204
20.2711
19.7405
20.2711
21.2205
21.5324
20.5078
19.957
20.5078
21.5324
21.9414
20.8224
20.2439
20.8224
21.9415
22.444
21.2086
20.5942
21.2086
22.444
23.0273
21.6518
20.9923
21.6519
23.0273
23.6674
22.1265
21.4125
22.1265
23.6674
24.3303
22.5948
21.8188
22.5949
24.3304
24.9616
23.0053
22.1694
23.0053
24.9616
19.8716
18.9225
17.6553
18.9225
19.8716
22.3832
21.1523
20.0163
21.1523
22.3832
23.897
22.6974
21.6084
22.6974
23.8971
24.8647
23.6882
22.6482
23.6882
24.8647
25.4488
24.3019
23.3052
24.3018
25.4489
25.7727
24.6538
23.6952
24.6538
25.7728
25.9149
24.8223
23.8974
24.8224
25.9152
25.9282
24.8603
23.9653
24.8605
25.9286
25.8543
24.8081
23.9386
24.8084
25.8548
25.7087
24.6847
23.84
24.685
25.7093
25.5118
24.508
23.6852
24.5083
25.5123
25.2764
24.292
23.4899
24.2923
25.2767
25.0117
24.0462
23.2633
24.0463
25.0118
24.7252
23.7778
23.0131
23.7778
24.7251
24.422
23.4922
22.7449
23.4922
24.422
24.107
23.1943
22.4639
23.1944
24.1071
23.7847
22.8884
22.1742
22.8885
23.7849
23.4591
22.5785
21.8799
22.5785
23.4592
23.1343
22.2683
21.5848
22.2683
23.1343
22.8141
21.9615
21.2926
21.9615
22.814
22.5028
21.6622
21.0075
21.6623
22.5028
22.2051
21.3748
20.7335
21.3749
22.2053
21.9262
21.1038
20.4752
21.1041
21.9266
21.6718
20.8546
20.2378
20.855
21.6725
21.4486
20.6331
20.0268
20.6335
21.4494
21.2644
20.4462
19.849
20.4466
21.2651
21.1281
20.3017
19.7116
20.302
21.1287
21.0502
20.2089
19.6235
20.2091
21.0507
21.0434
20.1782
19.5944
20.1783
21.0438
21.1182
20.2192
19.6333
20.2193
21.1184
21.2964
20.3475
19.754
20.3475
21.2965
21.5976
20.5807
19.9727
20.5807
21.5976
22.0403
20.931
20.2997
20.9309
22.0402
22.6437
21.4109
20.7449
21.4108
22.6436
23.4219
22.0263
21.3114
22.0262
23.4219
24.3765
22.7702
21.9892
22.7702
24.3765
25.4858
23.6135
22.7473
23.6135
25.4858
26.695
24.4946
23.5261
24.4946
26.695
27.8904
25.3109
24.2375
25.3109
27.8904
19.6704
18.6298
17.0843
18.6298
19.6704
22.5905
21.1771
19.7686
21.1771
22.5905
24.3578
22.95
21.578
22.95
24.3578
25.467
24.0714
22.7481
24.0713
25.467
26.1272
24.7589
23.4821
24.7589
26.1273
26.4931
25.1535
23.919
25.1536
26.4934
26.6592
25.3475
24.1513
25.3478
26.6596
26.6856
25.401
24.2395
25.4014
26.6861
26.6184
25.3577
24.226
25.3583
26.6191
26.4763
25.2405
24.1381
25.2411
26.4769
26.2788
25.066
23.9897
25.0665
26.2792
26.0404
24.8501
23.7984
24.8503
26.0404
25.7707
24.6022
23.5737
24.602
25.77
25.4773
24.3302
23.3237
24.3297
25.4763
25.1649
24.0389
23.054
24.0387
25.1643
24.8385
23.7336
22.7697
23.7337
24.8384
24.5032
23.4188
22.4753
23.419
24.5033
24.1631
23.0986
22.175
23.0987
24.163
23.8224
22.777
21.8728
22.7769
23.822
23.4847
22.4575
21.5725
22.4574
23.484
23.1544
22.1444
21.2783
22.1445
23.1542
22.8367
21.8422
20.9945
21.8426
22.8373
22.5368
21.5556
20.7258
21.5566
22.5383
22.261
21.2904
20.4776
21.2917
22.2632
22.0161
21.0528
20.2559
21.0541
22.0186
21.8106
20.8502
20.068
20.8514
21.813
21.6548
20.6917
19.9225
20.6927
21.6566
21.561
20.5883
19.8298
20.589
21.5624
21.545
20.5535
19.8029
20.554
21.546
21.622
20.601
19.8542
20.6013
21.6226
21.823
20.7542
20.0058
20.7542
21.8231
22.1832
21.0439
20.2855
21.0437
22.1829
22.7422
21.4995
20.7194
21.4992
22.7418
23.5527
22.159
21.3405
22.1587
23.5523
24.6759
23.0624
22.1812
23.0622
24.6756
26.1715
24.241
23.2635
24.2409
26.1713
28.0747
25.6949
24.5777
25.6949
28.0746
30.3501
27.3536
26.0487
27.3536
30.3501
32.7953
29.0184
27.4993
29.0184
32.7953
19.2333
18.158
16.1652
18.158
19.2333
23.0026
21.2947
19.3971
21.2947
23.0026
25.2694
23.469
21.56
23.469
25.2694
26.6395
24.8079
22.9337
24.8079
26.6396
27.4408
25.6206
23.7903
25.6207
27.441
27.8926
26.0935
24.3079
26.0937
27.8928
28.1152
26.3404
24.5973
26.3408
28.1146
28.1804
26.4313
24.728
26.4316
28.1787
28.1375
26.4128
24.7453
26.4132
28.1354
28.0143
26.3159
24.6826
26.3164
28.0114
27.8274
26.1542
24.5535
26.1544
27.8234
27.5947
25.9467
24.3762
25.9458
27.5908
27.3266
25.7036
24.1618
25.7013
27.3224
27.0324
25.433
23.9189
25.4305
27.0277
26.7149
25.1398
23.6535
25.1383
26.7114
26.3788
24.8293
23.3707
24.8288
26.377
26.0324
24.5072
23.0754
24.5068
26.0301
25.6787
24.1779
22.7724
24.1774
25.6761
25.3222
23.8455
22.466
23.8447
25.3178
24.9659
23.5133
22.16
23.5122
24.9593
24.6141
23.1855
21.8589
23.1852
24.6107
24.2731
22.8672
21.5672
22.8684
24.2738
23.9491
22.5636
21.2898
22.5662
23.9522
23.6484
22.2804
21.0321
22.2839
23.6536
23.3767
22.0237
20.8001
22.0276
23.383
23.1424
21.8011
20.6015
21.8047
23.1493
22.9581
21.6228
20.4458
21.6253
22.9639
22.8363
21.5005
20.3447
21.5024
22.8403
22.7939
21.4493
20.3134
21.4509
22.7958
22.85
21.487
20.3674
21.4881
22.8509
23.0387
21.6422
20.536
21.6425
23.0392
23.4148
21.9608
20.8606
21.9601
23.4133
24.0405
22.4927
21.3868
22.4919
24.0384
25.0172
23.3154
22.184
23.3147
25.0157
26.4999
24.5385
23.3467
24.5381
26.4991
28.7069
26.3054
24.9945
26.3051
28.7064
31.9271
28.7779
27.2502
28.7777
31.9268
36.4442
32.0454
30.1548
32.0454
36.4441
42.1925
35.841
33.4366
35.841
42.1925
17.9989
17.5852
14.904
17.5852
17.999
24.0521
22.0026
19.1978
22.0026
24.0522
27.4788
24.9432
21.9609
24.9432
27.4789
29.4029
26.6808
23.6783
26.6808
29.403
30.5166
27.7396
24.7586
27.7397
30.5166
31.1791
28.3833
25.4373
28.3831
31.1769
31.5543
28.7555
25.8488
28.7534
31.5449
31.7238
28.939
26.0731
28.9351
31.7151
31.7528
28.986
26.1613
28.981
31.7364
31.6915
28.9364
26.1491
28.9291
31.6586
31.5312
28.8092
26.0634
28.801
31.4957
31.3197
28.6229
25.9152
28.6161
31.3008
31.0615
28.3909
25.7198
28.3845
31.0578
30.7824
28.1267
25.4897
28.1197
30.7737
30.4844
27.8335
25.231
27.8271
30.4701
30.1269
27.5129
24.9484
27.5095
30.1303
29.763
27.1784
24.6494
27.1748
29.7762
29.4094
26.8354
24.3404
26.8304
29.3959
29.0518
26.4871
24.0265
26.4785
29.0076
28.6755
26.1352
23.7117
26.1224
28.6107
28.2969
25.7851
23.4011
25.7776
28.2522
27.9295
25.4444
23.1002
25.4428
27.9158
27.5823
25.1197
22.8143
25.121
27.5743
27.2612
24.8172
22.5492
24.8213
27.2476
26.9567
24.5407
22.3111
24.5474
26.9425
26.693
24.2998
22.108
24.308
26.7026
26.4993
24.1093
21.9513
24.1154
26.5056
26.3663
23.9799
21.8549
23.9835
26.363
26.3175
23.928
21.8371
23.9288
26.3113
26.3574
23.9721
21.9158
23.9729
26.3499
26.5282
24.1489
22.1311
24.1504
26.5391
26.9239
24.5191
22.5352
24.5174
26.9286
27.5885
25.1504
23.1963
25.1473
27.5754
28.6471
26.1666
24.2311
26.1647
28.6398
30.4516
27.7912
25.8348
27.7903
30.4492
33.4991
30.3935
28.3344
30.393
33.4981
38.7961
34.6036
32.2597
34.6033
38.7957
48.3618
41.486
38.4144
41.4859
48.3615
65.064
51.9071
47.4935
51.907
65.0639
14.4394
20.1445
17.5979
20.1446
14.4395
28.8879
29.1947
26.2111
29.1948
28.8881
35.4713
34.2757
30.9485
34.2758
35.4714
38.9762
37.4085
33.9802
37.4086
38.9765
41.1473
39.46
35.9994
39.4602
41.1476
42.5791
40.8342
37.3651
40.8344
42.5773
43.5177
41.7406
38.2776
41.7385
43.5044
44.1004
42.3055
38.8588
42.2993
44.0733
44.4113
42.6125
39.1901
42.6041
44.3785
44.5052
42.7082
39.3214
42.6997
44.4612
44.4706
42.668
39.3093
42.6589
44.4167
44.3096
42.5105
39.1945
42.5015
44.2799
44.0387
42.2421
38.9638
42.2298
44.0254
43.7201
41.9042
38.6633
41.8912
43.6987
43.3348
41.503
38.3038
41.4945
43.3164
42.882
41.0502
37.895
41.0455
42.8741
42.4206
40.5675
37.453
40.5612
42.3951
41.9291
40.0633
36.9895
40.0573
41.9047
41.4249
39.5474
36.5189
39.5404
41.3864
40.9155
39.0278
36.0497
39.0164
40.8407
40.3998
38.5125
35.5882
38.5082
40.3651
39.91
38.0183
35.1449
38.0208
39.9015
39.4556
37.5559
34.7291
37.562
39.4497
39.0553
37.1394
34.3531
37.148
39.0575
38.7028
36.7772
34.0291
36.788
38.7087
38.4049
36.4861
33.7729
36.4982
38.434
38.2274
36.2969
33.6053
36.3037
38.2519
38.1822
36.2381
33.555
36.242
38.1951
38.28
36.3286
33.6518
36.3317
38.2736
38.5671
36.6252
33.951
36.6293
38.563
39.1359
37.2339
34.5486
37.2361
39.1488
40.0975
38.251
35.5325
38.2469
40.0833
41.5302
39.8378
37.0621
39.8343
41.5131
43.6014
42.2391
39.3716
42.238
43.597
47.4831
45.8848
42.8453
45.8843
47.4825
53.5252
51.5181
48.1838
51.5177
53.5247
63.3201
60.5283
56.6746
60.5281
63.3197
84.0281
76.8331
71.4225
76.8329
84.0277
169.878
131.434
119.374
131.434
169.877
17.8165
15.7206
14.4365
15.7206
17.8165
15.9562
14.1252
12.3136
14.1252
15.9562
15.0809
14.055
12.9286