/*--------------------------------*- C++ -*----------------------------------*\
  =========                 |
  \\      /  F ield         | OpenFOAM: The Open Source CFD Toolbox
   \\    /   O peration     | Website:  https://openfoam.org
    \\  /    A nd           | Version:  9
     \\/     M anipulation  |
\*---------------------------------------------------------------------------*/
FoamFile
{
    format      ascii;
    class       volScalarField;
    location    "5";
    object      k;
}
// * * * * * * * * * * * * * * * * * * * * * * * * * * * * * * * * * * * * * //

dimensions      [0 2 -2 0 0 0 0];

internalField   nonuniform List<scalar> 
4545
(
0.980897
1.2216
1.11791
1.2216
0.980903
1.54105
1.55129
1.4445
1.55129
1.54105
1.76214
1.72294
1.61015
1.72295
1.76215
1.87541
1.82588
1.7131
1.82589
1.87541
1.9453
1.89305
1.78122
1.89305
1.94531
1.99201
1.93875
1.8279
1.93876
1.99203
2.02375
1.97015
1.8603
1.97018
2.02381
2.04486
1.99148
1.88262
1.99152
2.04507
2.05845
2.00544
1.89758
2.0055
2.05886
2.06669
2.01397
1.90705
2.01407
2.06724
2.07099
2.01828
1.91222
2.01839
2.07156
2.0721
2.01921
1.91393
2.01926
2.07218
2.07077
2.0177
1.91311
2.01767
2.07056
2.0672
2.01369
1.90992
2.01355
2.06688
2.06152
2.00756
1.90446
2.00727
2.06077
2.054
1.99968
1.8973
1.99939
2.05358
2.04471
1.99
1.88838
1.98968
2.0446
2.03444
1.97865
1.87779
1.97829
2.03396
2.02272
1.96576
1.86557
1.96539
2.02157
2.00851
1.95098
1.8516
1.95061
2.00679
1.99211
1.93409
1.8358
1.93416
1.99162
1.97342
1.91525
1.8181
1.91576
1.97488
1.95384
1.89455
1.79838
1.89512
1.95496
1.93242
1.87176
1.77658
1.87244
1.9335
1.90814
1.84668
1.75261
1.84755
1.91016
1.88212
1.81932
1.72643
1.82021
1.88421
1.85359
1.7896
1.69788
1.79034
1.85582
1.82319
1.75755
1.66718
1.75779
1.82389
1.79006
1.72291
1.63482
1.72295
1.79
1.75365
1.6855
1.60012
1.68561
1.7543
1.71611
1.64569
1.56307
1.64571
1.71647
1.67666
1.60345
1.52369
1.60344
1.67656
1.6338
1.5586
1.48192
1.55858
1.63366
1.58848
1.51119
1.43773
1.51117
1.5884
1.54055
1.46127
1.39113
1.46127
1.54055
1.48996
1.40893
1.34205
1.40894
1.48998
1.43703
1.35416
1.29033
1.35417
1.43705
1.38187
1.29657
1.23561
1.29658
1.38188
1.32362
1.23458
1.17732
1.23459
1.32363
3.27511
3.31696
3.03684
3.31696
3.27512
3.98186
3.86891
3.60004
3.86891
3.98186
4.35806
4.21931
3.94717
4.21931
4.35806
4.57951
4.4338
4.16684
4.4338
4.57951
4.72063
4.57321
4.31144
4.57322
4.72064
4.81446
4.666
4.40884
4.666
4.8145
4.87698
4.72772
4.47463
4.7277
4.87705
4.91656
4.76758
4.51823
4.76764
4.91717
4.9407
4.79162
4.54569
4.79176
4.94187
4.95319
4.80391
4.56109
4.80417
4.95462
4.95682
4.80722
4.56719
4.80747
4.95852
4.95493
4.80381
4.5661
4.80384
4.95546
4.94715
4.79455
4.55922
4.79454
4.94655
4.93489
4.7803
4.54693
4.78004
4.93456
4.91841
4.76174
4.53034
4.76128
4.91774
4.89758
4.73932
4.50993
4.73915
4.89748
4.87357
4.71341
4.48591
4.71321
4.87487
4.84859
4.68445
4.45851
4.68385
4.84913
4.81929
4.65222
4.42782
4.6514
4.81741
4.78385
4.61607
4.39355
4.61533
4.78114
4.74587
4.57611
4.35565
4.57618
4.744
4.7026
4.53233
4.31401
4.53315
4.70431
4.65703
4.48512
4.26852
4.48591
4.65839
4.60732
4.43405
4.21909
4.43513
4.60755
4.5512
4.3785
4.16553
4.3801
4.55288
4.492
4.31881
4.10765
4.3203
4.49359
4.42681
4.2547
4.04526
4.25584
4.42941
4.35599
4.18609
3.97797
4.18664
4.35762
4.27901
4.11262
3.90559
4.11295
4.2796
4.19689
4.03427
3.82832
4.03468
4.19858
4.11302
3.95175
3.74646
3.95194
4.11479
4.02484
3.86485
3.66001
3.86481
4.02498
3.92871
3.77302
3.56876
3.77303
3.92856
3.8281
3.67643
3.47261
3.6765
3.82796
3.72287
3.57502
3.37149
3.57505
3.72281
3.61183
3.46862
3.26522
3.46865
3.61184
3.4961
3.35687
3.15331
3.35691
3.49613
3.37642
3.23844
3.03484
3.23847
3.37645
3.2507
3.1088
2.90863
3.10882
3.25072
4.38183
4.2984
4.04938
4.29841
4.38184
5.04306
4.87314
4.6474
4.87314
5.04306
5.43842
5.26234
5.04132
5.26234
5.43842
5.69218
5.51571
5.30202
5.51571
5.69218
5.85929
5.68498
5.47776
5.68499
5.85929
5.97144
5.79905
5.59734
5.79905
5.97145
6.04618
5.87531
5.6783
5.87532
6.0462
6.09435
5.92469
5.73172
5.92471
6.09442
6.12322
5.95439
5.76493
5.95441
6.12335
6.13757
5.9692
5.78285
5.96925
6.13774
6.1408
5.97256
5.789
5.97264
6.141
6.13577
5.9673
5.78616
5.96737
6.13587
6.12343
5.95455
5.77576
5.95459
6.12339
6.10508
5.93555
5.75878
5.93553
6.10499
6.08167
5.9113
5.73644
5.91121
6.08148
6.05368
5.88241
5.70935
5.88229
6.05348
6.02151
5.84924
5.67788
5.84912
6.02139
5.98546
5.81203
5.64229
5.81189
5.98529
5.9454
5.77087
5.60268
5.77074
5.94506
5.90097
5.7256
5.55899
5.72554
5.90065
5.85222
5.67618
5.51115
5.67627
5.85216
5.79888
5.62246
5.45902
5.62273
5.79928
5.74096
5.56436
5.40247
5.56471
5.74154
5.67814
5.50171
5.34137
5.50214
5.67878
5.61003
5.43431
5.27556
5.43481
5.61086
5.53665
5.36203
5.20488
5.36252
5.53749
5.45773
5.28474
5.12918
5.28512
5.4585
5.37315
5.2023
5.04833
5.20253
5.37364
5.28271
5.11456
4.96222
5.11471
5.28296
5.1865
5.02149
4.87075
5.02161
5.18671
5.08474
4.92312
4.77392
4.92319
5.08493
4.97734
4.81939
4.67165
4.81943
4.97741
4.86403
4.71013
4.5638
4.71018
4.86406
4.7449
4.59523
4.45017
4.59528
4.74493
4.61991
4.47452
4.33055
4.47457
4.61995
4.48891
4.34771
4.2046
4.34775
4.48896
4.35189
4.21427
4.0718
4.21431
4.35193
4.20902
4.07307
3.93138
4.07311
4.20905
4.05759
3.92099
3.78283
3.92101
4.05761
5.06803
4.95747
4.741
4.95748
5.06803
5.70059
5.52468
5.33272
5.52468
5.7006
6.10011
5.92437
5.73959
5.92437
6.10011
6.3695
6.19565
6.01854
6.19565
6.3695
6.55246
6.38172
6.21108
6.38173
6.55246
6.67736
6.50925
6.34401
6.50926
6.67736
6.76148
6.59547
6.43475
6.59547
6.76148
6.81613
6.65173
6.49485
6.65173
6.81614
6.84898
6.68574
6.53215
6.68575
6.849
6.8653
6.70283
6.55209
6.70284
6.86533
6.86886
6.70681
6.5586
6.70684
6.8689
6.86276
6.70082
6.55479
6.70085
6.86279
6.84827
6.68627
6.54233
6.68629
6.84828
6.82692
6.6646
6.52245
6.6646
6.82691
6.79979
6.63697
6.4965
6.63696
6.79974
6.76754
6.60414
6.46521
6.6041
6.76747
6.73063
6.56656
6.42908
6.56652
6.73055
6.68928
6.52452
6.38843
6.52448
6.68919
6.6436
6.47819
6.34342
6.47816
6.6435
6.59349
6.42755
6.29409
6.42754
6.59341
6.53885
6.37256
6.24041
6.37261
6.53885
6.47953
6.31313
6.1823
6.31324
6.47965
6.41537
6.24915
6.11965
6.24929
6.41557
6.34617
6.18046
6.05232
6.18063
6.34642
6.27173
6.10693
5.98018
6.10711
6.27204
6.19191
6.02841
5.9031
6.02859
6.19223
6.10657
5.94478
5.82093
5.94493
6.10685
6.01559
5.8559
5.73354
5.85601
6.01579
5.91885
5.76165
5.64081
5.76173
5.91899
5.81628
5.66192
5.54257
5.66198
5.81638
5.70781
5.55657
5.43869
5.55662
5.70789
5.59336
5.44543
5.32897
5.44547
5.59342
5.47277
5.32831
5.21317
5.32835
5.47282
5.34586
5.20497
5.09103
5.20501
5.34591
5.21241
5.07511
4.96221
5.07515
5.21246
5.07218
4.93835
4.82628
4.93839
5.07223
4.92503
4.7942
4.68273
4.79423
4.92506
4.77119
4.64173
4.53094
4.64176
4.77121
4.60849
4.4786
4.37063
4.47862
4.6085
5.54756
5.43141
5.23964
5.43142
5.54757
6.16162
5.98848
5.81913
5.98849
6.16163
6.5617
6.39084
6.22898
6.39084
6.5617
6.84005
6.67171
6.51721
6.67171
6.84005
7.03361
6.86848
6.72008
6.86848
7.03361
7.16796
7.00548
6.86214
7.00549
7.16796
7.25956
7.09921
6.96007
7.09921
7.25956
7.31967
7.16096
7.02536
7.16097
7.31967
7.35614
7.19865
7.06607
7.19866
7.35614
7.37452
7.21787
7.08789
7.21788
7.37453
7.37883
7.2227
7.09501
7.22271
7.37884
7.37237
7.21647
7.09075
7.21648
7.37238
7.35668
7.20085
7.07699
7.20087
7.3567
7.33342
7.17744
7.05518
7.17744
7.33343
7.30382
7.14752
7.02675
7.14752
7.30381
7.26868
7.11198
6.99257
7.11197
7.26865
7.22854
7.07138
6.95325
7.07137
7.22851
7.18373
7.0261
6.9092
7.02609
7.1837
7.13445
6.97639
6.86065
6.97638
7.13441
7.0807
6.92232
6.80774
6.92233
7.08067
7.02249
6.86395
6.75052
6.86397
7.02248
6.95972
6.80122
6.68895
6.80126
6.95974
6.89227
6.73408
6.62299
6.73413
6.89233
6.82003
6.66241
6.55254
6.66248
6.82011
6.74285
6.58613
6.47751
6.5862
6.74295
6.66062
6.50511
6.39777
6.50518
6.66073
6.57322
6.41922
6.31319
6.41929
6.57333
6.48052
6.32832
6.2236
6.32838
6.48061
6.38238
6.23224
6.12883
6.23228
6.38246
6.27865
6.13076
6.02865
6.1308
6.27871
6.16912
6.02365
5.92278
6.02368
6.16917
6.05355
5.91059
5.81091
5.91063
6.0536
5.93163
5.79126
5.69266
5.79129
5.93167
5.80297
5.66524
5.5676
5.66527
5.80301
5.66716
5.53209
5.43526
5.53212
5.6672
5.52379
5.39132
5.29512
5.39135
5.52382
5.37261
5.24237
5.14659
5.2424
5.37264
5.21384
5.08439
4.98905
5.08441
5.21386
5.0456
4.91529
4.82216
4.91531
5.04561
5.89534
5.77801
5.60323
5.77802
5.89535
6.49669
6.32696
6.17228
6.32697
6.4967
6.89635
6.7297
6.58225
6.7297
6.89636
7.18021
7.01621
6.87569
7.01622
7.18021
7.38098
7.22008
7.08528
7.22008
7.38099
7.52217
7.36382
7.23374
7.36382
7.52218
7.61945
7.46313
7.33698
7.46313
7.61945
7.68383
7.52912
7.40626
7.52912
7.68383
7.72321
7.56971
7.44965
7.56971
7.72321
7.74329
7.59064
7.473
7.59065
7.74329
7.74823
7.59617
7.48065
7.59618
7.74824
7.74151
7.58978
7.47608
7.58978
7.74152
7.7249
7.57334
7.46135
7.57334
7.7249
7.70014
7.54855
7.43805
7.54856
7.70014
7.66862
7.51687
7.40774
7.51688
7.66861
7.63126
7.47927
7.3714
7.47928
7.63125
7.58873
7.43645
7.32976
7.43645
7.58871
7.54146
7.38888
7.28331
7.38888
7.54144
7.48975
7.3369
7.23241
7.3369
7.48972
7.43373
7.2807
7.17727
7.2807
7.43371
7.3735
7.22041
7.11803
7.22042
7.37348
7.30906
7.15608
7.05475
7.15609
7.30906
7.24039
7.08771
6.98745
7.08773
7.2404
7.16745
7.01527
6.9161
7.0153
7.16747
7.09015
6.9387
6.84065
6.93873
7.09019
7.00843
6.85792
6.76099
6.85795
7.00848
6.92217
6.77279
6.67698
6.77282
6.92222
6.83123
6.68314
6.58844
6.68317
6.83128
6.73541
6.58872
6.49511
6.58875
6.73545
6.63444
6.48924
6.39666
6.48926
6.63448
6.52797
6.3843
6.29268
6.38432
6.52801
6.41558
6.27343
6.1827
6.27346
6.41561
6.29671
6.15611
6.06615
6.15613
6.29674
6.17075
6.03171
5.94241
6.03174
6.17078
6.03706
5.89961
5.81082
5.89963
6.03708
5.89499
5.75913
5.67069
5.75915
5.89501
5.74412
5.60956
5.52127
5.60958
5.74414
5.58452
5.44994
5.36181
5.44996
5.58453
5.41434
5.27821
5.19175
5.27823
5.41435
6.14467
6.02699
5.86351
6.027
6.14468
6.73728
6.57015
6.42498
6.57015
6.73729
7.13637
6.97267
6.83441
6.97267
7.13638
7.4237
7.26266
7.13095
7.26266
7.42371
7.62929
7.47122
7.34493
7.47122
7.62929
7.77519
7.61957
7.49776
7.61958
7.7752
7.87645
7.7228
7.60471
7.72281
7.87645
7.94383
7.79176
7.67679
7.79176
7.94383
7.9852
7.83435
7.72204
7.83435
7.9852
8.00633
7.85639
7.74636
7.8564
8.00633
8.01151
7.86224
7.75423
7.86224
8.01151
8.00434
7.8555
7.74923
7.8555
8.00435
7.98672
7.83819
7.73354
7.83819
7.98672
7.96055
7.81213
7.70891
7.81214
7.96055
7.92733
7.77891
7.67699
7.77891
7.92733
7.88811
7.73961
7.6389
7.73961
7.8881
7.84367
7.69503
7.59546
7.69503
7.84366
7.79457
7.64578
7.54727
7.64578
7.79455
7.74123
7.59229
7.49481
7.59229
7.74121
7.68389
7.53487
7.43839
7.53487
7.68388
7.62278
7.47374
7.37826
7.47375
7.62276
7.55802
7.40907
7.31457
7.40908
7.55801
7.48968
7.34094
7.24742
7.34096
7.48968
7.41781
7.26941
7.17687
7.26942
7.41782
7.34241
7.19447
7.1029
7.19449
7.34243
7.26344
7.11606
7.02545
7.11608
7.26347
7.18081
7.03406
6.94439
7.03408
7.18084
7.09435
6.94826
6.85948
6.94828
7.09438
7.00377
6.85834
6.7704
6.85836
7.00381
6.90871
6.76389
6.6767
6.76391
6.90874
6.80863
6.66436
6.57783
6.66438
6.80866
6.70289
6.55909
6.47311
6.55911
6.70292
6.59069
6.4473
6.36175
6.44732
6.59072
6.47115
6.32815
6.24291
6.32817
6.47117
6.3433
6.20074
6.11567
6.20075
6.34332
6.20626
6.06415
5.9791
6.06416
6.20628
6.05932
5.91744
5.83223
5.91745
6.05934
5.90234
5.75945
5.67406
5.75947
5.90236
5.73335
5.58797
5.50377
5.58798
5.73336
6.31301
6.19513
6.03879
6.19514
6.31302
6.89996
6.73454
6.59533
6.73454
6.89997
7.29858
7.13678
7.00423
7.13678
7.29859
7.588
7.42884
7.30259
7.42885
7.58801
7.79655
7.64031
7.51926
7.64031
7.79656
7.94538
7.79153
7.67479
7.79153
7.94538
8.04904
7.89716
7.78401
7.89716
8.04905
8.11814
7.96786
7.85772
7.96786
8.11815
8.16051
8.01149
7.90393
8.0115
8.16051
8.18194
8.03392
7.92858
8.03392
8.18195
8.18682
8.03957
7.93619
8.03957
8.18682
8.17885
8.03216
7.93049
8.03216
8.17885
8.15999
8.01376
7.91369
8.01377
8.16
8.13233
7.98638
7.8877
7.98639
8.13233
8.09745
7.95167
7.85429
7.95168
8.09745
8.05653
7.91084
7.81465
7.91084
8.05653
8.01048
7.8648
7.76973
7.8648
8.01047
7.95996
7.81427
7.72025
7.81427
7.95995
7.90552
7.75979
7.66678
7.75979
7.90551
7.84755
7.70179
7.60976
7.70179
7.84754
7.78638
7.64062
7.54954
7.64063
7.78637
7.72226
7.57655
7.48639
7.57655
7.72226
7.6554
7.50976
7.4205
7.50976
7.6554
7.58593
7.44039
7.35202
7.44041
7.58594
7.51395
7.36854
7.28101
7.36855
7.51396
7.43946
7.29417
7.20745
7.29418
7.43948
7.36239
7.21717
7.13121
7.21719
7.36241
7.28256
7.13732
7.05203
7.13734
7.28258
7.19962
7.05423
6.96952
7.05425
7.19965
7.11308
6.96738
6.88313
6.96739
7.1131
7.02224
6.87604
6.79214
6.87606
7.02226
6.92622
6.77935
6.69566
6.77937
6.92624
6.82395
6.67629
6.59266
6.6763
6.82397
6.71422
6.5657
6.482
6.56571
6.71424
6.59577
6.44638
6.36248
6.44639
6.59578
6.46733
6.3171
6.23283
6.31711
6.46734
6.32787
6.1766
6.09179
6.17661
6.32788
6.1769
6.02341
5.93803
6.02342
6.17691
6.01223
5.85507
5.77038
5.85508
6.01224
6.41011
6.29203
6.1396
6.29204
6.41012
6.99398
6.82946
6.69351
6.82947
6.99399
7.39231
7.23153
7.10209
7.23154
7.39232
7.68278
7.52465
7.40135
7.52465
7.68279
7.89278
7.73754
7.61934
7.73754
7.89279
8.04293
7.89011
7.77613
7.89011
8.04294
8.14756
7.99673
7.88628
7.99674
8.14757
8.21715
8.06798
7.9605
8.06798
8.21715
8.25949
8.11168
8.00674
8.11168
8.2595
8.28042
8.13372
8.03099
8.13373
8.28043
8.28438
8.13859
8.03782
8.1386
8.28438
8.27519
8.13012
8.03106
8.13013
8.27519
8.25478
8.11035
8.0129
8.11036
8.25478
8.22545
8.08149
7.98545
8.0815
8.22545
8.18887
8.04526
7.95052
8.04526
8.18887
8.1463
8.00295
7.90943
8.00296
8.14629
8.09877
7.95561
7.86321
7.95561
8.09877
8.04708
7.90404
7.81271
7.90404
8.04707
7.9919
7.84892
7.75861
7.84892
7.99189
7.93375
7.7908
7.70146
7.7908
7.93374
7.87308
7.73014
7.64173
7.73014
7.87307
7.8103
7.66732
7.57981
7.66733
7.81029
7.74571
7.60266
7.516
7.60267
7.74571
7.67958
7.5364
7.45054
7.53641
7.67958
7.61208
7.46868
7.38357
7.46869
7.61208
7.54331
7.39957
7.31513
7.39958
7.54332
7.47325
7.329
7.24514
7.32901
7.47326
7.40172
7.25674
7.17335
7.25676
7.40174
7.32835
7.18239
7.09933
7.1824
7.32836
7.25255
7.10531
7.02243
7.10533
7.25256
7.17348
7.02466
6.9418
7.02467
7.1735
7.09003
6.93933
6.85631
6.93934
7.09005
7.00084
6.84802
6.76469
6.84803
7.00086
6.90436
6.74927
6.66545
6.74928
6.90437
6.7989
6.64148
6.55703
6.64149
6.79891
6.68278
6.52302
6.43776
6.52303
6.6828
6.55454
6.39221
6.30596
6.39222
6.55455
6.41324
6.24719
6.15989
6.2472
6.41325
6.25634
6.08514
5.99796
6.08515
6.25635
6.44101
6.32272
6.17146
6.32272
6.44102
7.02417
6.85982
6.72485
6.85983
7.02419
7.42246
7.2619
7.1334
7.26191
7.42247
7.7131
7.55523
7.43284
7.55524
7.71311
7.92321
7.76829
7.65097
7.76829
7.92322
8.07328
7.92083
7.80772
7.92084
8.07329
8.17755
8.02718
7.91759
8.02719
8.17755
8.24646
8.09786
7.99125
8.09787
8.24647
8.28783
8.14072
8.03667
8.14072
8.28784
8.30752
8.16166
8.05985
8.16167
8.30753
8.30999
8.16522
8.06539
8.16522
8.30999
8.29919
8.15533
8.05725
8.15533
8.2992
8.27695
8.13392
8.03749
8.13393
8.27696
8.2458
8.10344
8.00847
8.10344
8.2458
8.20743
8.06562
7.972
8.06562
8.20743
8.16321
8.02186
7.92951
8.02186
8.16321
8.11427
7.97328
7.88211
7.97328
8.11427
8.06152
7.92081
7.83075
7.92081
8.06152
8.00576
7.86523
7.77623
7.86524
8.00575
7.94763
7.80721
7.7192
7.80721
7.94762
7.88773
7.74734
7.66027
7.74734
7.88773
7.8266
7.68613
7.59994
7.68613
7.8266
7.76469
7.62401
7.53865
7.62401
7.76469
7.70239
7.56135
7.47674
7.56135
7.70239
7.63999
7.4984
7.41446
7.49841
7.63999
7.57771
7.43532
7.35194
7.43533
7.57772
7.5156
7.37213
7.2892
7.37215
7.51562
7.45355
7.30866
7.22602
7.30867
7.45356
7.39119
7.24452
7.162
7.24454
7.3912
7.328
7.17909
7.09646
7.1791
7.32802
7.26303
7.11135
7.02841
7.11137
7.26305
7.1949
7.04002
6.95655
7.04004
7.19492
7.12199
6.96353
6.87931
6.96354
7.122
7.04235
6.88002
6.79486
6.88003
7.04236
6.95384
6.78747
6.70117
6.78748
6.95386
6.85425
6.68371
6.59607
6.68372
6.85426
6.7415
6.56652
6.47734
6.56653
6.74151
6.61407
6.43348
6.34268
6.43349
6.61408
6.46894
6.28126
6.18993
6.28127
6.46895
6.40728
6.28875
6.13609
6.28875
6.40729
6.99208
6.82715
6.691
6.82716
6.99209
7.39058
7.22948
7.09987
7.22949
7.39059
7.68061
7.52227
7.39883
7.52227
7.68062
7.88962
7.73431
7.61601
7.73432
7.88963
8.03827
7.88555
7.77152
7.88555
8.03828
8.14091
7.99041
7.87996
7.99041
8.14092
8.20807
8.05948
7.95206
8.05948
8.20808
8.24758
8.10064
7.99584
8.10064
8.24759
8.26533
8.11982
8.01732
8.11983
8.26534
8.26581
8.12158
8.02114
8.12159
8.26582
8.25305
8.10994
8.01131
8.10994
8.25306
8.22875
8.08668
7.98978
8.08668
8.22876
8.19563
8.05445
7.95909
8.05446
8.19564
8.15541
8.01501
7.92109
8.01501
8.15541
8.10953
7.96981
7.87723
7.96981
8.10953
8.0592
7.92005
7.82874
7.92005
8.0592
8.00544
7.86675
7.77663
7.86676
8.00544
7.94916
7.81082
7.72181
7.81082
7.94915
7.89112
7.753
7.66505
7.753
7.89111
7.83206
7.69403
7.60707
7.69403
7.83206
7.77266
7.63454
7.54849
7.63454
7.77265
7.71351
7.5751
7.48989
7.57511
7.71351
7.65516
7.51623
7.43176
7.51623
7.65516
7.59808
7.45832
7.37448
7.45833
7.59809
7.54261
7.40167
7.31832
7.40168
7.54262
7.48895
7.34641
7.26339
7.34642
7.48896
7.43708
7.29247
7.2096
7.29248
7.43709
7.38675
7.23955
7.15662
7.23956
7.38677
7.33759
7.18714
7.10385
7.18715
7.3376
7.28861
7.13423
7.05032
7.13424
7.28863
7.23841
7.07941
6.99458
7.07942
7.23843
7.18511
7.02087
6.93483
7.02088
7.18512
7.12631
6.95632
6.86881
6.95633
7.12632
7.05935
6.88323
6.79398
6.88324
7.05936
6.98131
6.79878
6.70754
6.79879
6.98132
6.8893
6.69996
6.60648
6.69997
6.88931
6.78095
6.58355
6.48772
6.58355
6.78096
6.65246
6.44542
6.34828
6.44543
6.65247
6.30737
6.18856
6.03174
6.18856
6.30738
6.89628
6.72999
6.59036
6.73
6.8963
7.2953
7.13282
6.99991
7.13282
7.29531
7.58392
7.42429
7.29774
7.42429
7.58393
7.79057
7.63412
7.51286
7.63412
7.79058
7.93648
7.78277
7.66591
7.78278
7.93649
8.03629
7.88497
7.7718
7.88497
8.0363
8.10065
7.95143
7.84141
7.95143
8.10067
8.13749
7.9901
7.88281
7.99011
8.1375
8.15269
8.00695
7.90206
8.00696
8.1527
8.15083
8.00655
7.9038
8.00655
8.15084
8.13577
7.99288
7.89209
7.99289
8.13579
8.10931
7.96769
7.8687
7.96769
8.10932
8.0742
7.93371
7.83638
7.93372
8.0742
8.03216
7.8927
7.79692
7.8927
8.03216
7.98468
7.84616
7.75183
7.84616
7.98468
7.93305
7.79534
7.70239
7.79534
7.93305
7.87836
7.74134
7.64969
7.74134
7.87836
7.8216
7.68513
7.5947
7.68513
7.8216
7.76365
7.62757
7.5383
7.62757
7.76365
7.70537
7.5695
7.48131
7.5695
7.70537
7.64757
7.51168
7.42448
7.51168
7.64756
7.591
7.45483
7.36852
7.45483
7.59099
7.53637
7.39961
7.31408
7.39961
7.53637
7.48436
7.34661
7.26174
7.34662
7.48436
7.43553
7.29634
7.21195
7.29635
7.43554
7.39031
7.24913
7.16503
7.24914
7.39033
7.34896
7.20514
7.12109
7.20515
7.34898
7.31144
7.16424
7.07997
7.16425
7.31146
7.27736
7.12594
7.04114
7.12595
7.27738
7.24591
7.08937
7.00367
7.08938
7.24593
7.21583
7.05318
6.96618
7.05319
7.21585
7.18522
7.01546
6.92676
7.01547
7.18524
7.15167
6.97387
6.88306
6.97388
7.15168
7.11183
6.92528
6.832
6.92529
7.11184
7.0618
6.86595
6.76986
6.86596
7.06181
6.99754
6.79172
6.69247
6.79172
6.99755
6.9153
6.69813
6.59557
6.69813
6.91531
6.81
6.57978
6.47492
6.57979
6.81001
6.13623
6.0171
5.85289
6.01711
6.13625
6.73205
6.56352
6.41769
6.56352
6.73206
7.1319
6.96708
6.82825
6.96708
7.13192
7.41821
7.25634
7.12416
7.25635
7.41822
7.62115
7.46266
7.33601
7.46266
7.62116
7.76294
7.6074
7.48535
7.6074
7.76295
7.85871
7.70576
7.58759
7.70576
7.85873
7.91934
7.76869
7.65383
7.76869
7.91936
7.95281
7.80421
7.69223
7.80422
7.95282
7.96502
7.81829
7.70886
7.8183
7.96503
7.96061
7.81556
7.70838
7.81557
7.96063
7.94313
7.79974
7.6947
7.79974
7.94315
7.91458
7.7727
7.66959
7.7727
7.91459
7.87762
7.73714
7.63582
7.73714
7.87763
7.83396
7.69478
7.59516
7.69479
7.83397
7.78512
7.64715
7.54913
7.64715
7.78512
7.7324
7.59553
7.49903
7.59553
7.7324
7.67694
7.54104
7.44599
7.54104
7.67694
7.61981
7.48472
7.39103
7.48472
7.61981
7.56197
7.4275
7.33512
7.4275
7.56196
7.50436
7.37032
7.27915
7.37031
7.50435
7.44791
7.31403
7.224
7.31403
7.44791
7.39354
7.2595
7.17049
7.2595
7.39353
7.34211
7.20754
7.11943
7.20754
7.34212
7.29452
7.15894
7.07158
7.15895
7.29453
7.25157
7.11444
7.02764
7.11445
7.25159
7.21402
7.07466
6.9882
7.07467
7.21403
7.18247
7.04008
6.95367
7.04009
7.18248
7.15731
7.01094
6.92426
7.01095
7.15733
7.13864
6.9872
6.89986
6.98721
7.13865
7.12608
6.96832
6.87987
6.96833
7.12609
7.11868
6.95322
6.86314
6.95323
7.1187
7.11466
6.94004
6.84777
6.94005
7.11468
7.11121
6.92597
6.83095
6.92598
7.11122
7.10484
6.90755
6.80915
6.90756
7.10485
7.0913
6.88056
6.77815
6.88057
7.09131
7.06486
6.83965
6.73277
6.83966
7.06487
7.0194
6.77801
6.66647
6.77802
7.01941
6.94731
6.68795
6.57275
6.68796
6.94732
5.8841
5.76474
5.58895
5.76475
5.88411
6.49015
6.31841
6.16279
6.31841
6.49016
6.89113
6.72281
6.57454
6.72281
6.89114
7.17393
7.00864
6.86741
7.00864
7.17394
7.37155
7.20986
7.07449
7.20986
7.37156
7.50772
7.34921
7.21872
7.34921
7.50773
7.59824
7.44255
7.31618
7.44255
7.59826
7.65427
7.50111
7.37827
7.50111
7.6543
7.68384
7.53296
7.41319
7.53297
7.68387
7.69281
7.54402
7.42699
7.54403
7.69284
7.68588
7.53898
7.42437
7.539
7.68591
7.66614
7.52116
7.40888
7.52117
7.66617
7.63583
7.49261
7.38243
7.49262
7.63584
7.59743
7.45589
7.34767
7.45589
7.59744
7.55263
7.41267
7.30633
7.41268
7.55263
7.5029
7.36446
7.2599
7.36446
7.5029
7.44955
7.31252
7.20966
7.31252
7.44955
7.39372
7.25798
7.15677
7.25798
7.39372
7.33652
7.20191
7.10226
7.20191
7.33652
7.27895
7.14529
7.04714
7.14528
7.27894
7.22202
7.08909
6.99237
7.08909
7.22201
7.16674
7.03427
6.93889
7.03427
7.16674
7.11415
6.98179
6.88764
6.98179
7.11415
7.06528
6.93261
6.83958
6.93262
7.06529
7.02121
6.88773
6.79565
6.88774
7.02122
6.98303
6.8481
6.75679
6.84812
6.98305
6.95183
6.8147
6.72391
6.81472
6.95186
6.92869
6.78841
6.69783
6.78842
6.92872
6.91456
6.76998
6.67924
6.76999
6.91458
6.9102
6.75995
6.66859
6.75996
6.91022
6.91596
6.75852
6.66598
6.75853
6.91597
6.93194
6.76523
6.67086
6.76524
6.93195
6.95744
6.77931
6.68226
6.77932
6.95745
6.99028
6.79835
6.69778
6.79835
6.99029
7.02682
6.81858
6.71355
6.81858
7.02683
7.06151
6.83443
6.72397
6.83443
7.06152
7.08759
6.83883
6.72199
6.83883
7.0876
7.09633
6.82381
6.70003
6.82382
7.09634
7.07521
6.77657
6.6468
6.77658
7.07522
5.53346
5.41467
5.22159
5.41467
5.53347
6.15401
5.97815
5.80756
5.97816
6.15402
6.55615
6.38296
6.22
6.38296
6.55616
6.83362
6.66337
6.5079
6.66337
6.83363
7.02378
6.85733
6.70811
6.85734
7.0238
7.15256
6.9895
6.8455
6.9895
7.15258
7.23659
7.07655
6.93698
7.07656
7.23662
7.28729
7.12998
6.9942
7.13
7.28732
7.31265
7.15782
7.02535
7.15784
7.31269
7.31842
7.16588
7.03637
7.1659
7.31847
7.3093
7.15885
7.03195
7.15887
7.30935
7.28783
7.13952
7.01517
7.13953
7.28786
7.25645
7.11013
6.98809
7.11014
7.25646
7.21743
7.07304
6.95317
7.07304
7.21743
7.17235
7.02983
6.91204
7.02982
7.17235
7.12262
6.98191
6.86613
6.98191
7.12262
7.0695
6.93053
6.81668
6.93053
7.0695
7.01411
6.87677
6.76481
6.87678
7.01411
6.95753
6.8217
6.71155
6.8217
6.95753
6.90077
6.76628
6.65789
6.76627
6.90077
6.84487
6.71151
6.60482
6.7115
6.84486
6.79087
6.65837
6.55333
6.65838
6.79087
6.73987
6.60791
6.50441
6.60792
6.73989
6.69302
6.56118
6.45912
6.5612
6.69306
6.65157
6.51932
6.41857
6.51935
6.65162
6.61683
6.48353
6.3839
6.48357
6.61689
6.59026
6.4551
6.35636
6.45513
6.59031
6.5734
6.43536
6.33721
6.43538
6.57344
6.56789
6.42569
6.32775
6.42571
6.56793
6.57516
6.42736
6.32915
6.42738
6.57519
6.59708
6.44148
6.34232
6.44149
6.5971
6.63548
6.46963
6.36868
6.46963
6.63549
6.69113
6.51188
6.40809
6.51188
6.69113
6.76406
6.56761
6.45966
6.56761
6.76406
6.85268
6.63452
6.52084
6.63452
6.85268
6.95253
6.7077
6.58653
6.7077
6.95253
7.05514
6.77822
6.64778
6.77823
7.05514
7.14861
6.83312
6.69182
6.83312
7.14861
7.21197
6.85454
6.70313
6.85455
7.21197
5.051
4.93721
4.71916
4.93722
5.05102
5.6921
5.51271
5.31923
5.51271
5.69212
6.09453
5.91573
5.72957
5.91573
6.09454
6.36339
6.18692
6.00856
6.18692
6.3634
6.54298
6.37026
6.19851
6.37027
6.543
6.66215
6.49285
6.32666
6.49286
6.66218
6.73841
6.57218
6.41071
6.5722
6.73845
6.78324
6.61979
6.4624
6.61981
6.78327
6.80442
6.64351
6.48969
6.64355
6.80445
6.80744
6.64889
6.49828
6.64893
6.80747
6.79694
6.64055
6.49278
6.64058
6.79696
6.7748
6.62069
6.4757
6.62069
6.77479
6.74361
6.59163
6.44916
6.5916
6.74355
6.70538
6.55548
6.4154
6.55544
6.7053
6.6615
6.51367
6.37592
6.51365
6.66145
6.61328
6.46751
6.33202
6.46751
6.61326
6.56192
6.41816
6.28487
6.41816
6.56192
6.50846
6.36664
6.2355
6.36664
6.50845
6.45392
6.31394
6.1849
6.31393
6.45389
6.39923
6.26096
6.13401
6.26094
6.39918
6.34539
6.20869
6.08378
6.20868
6.34536
6.29345
6.15809
6.0352
6.15811
6.29349
6.24452
6.11019
5.98927
6.11025
6.24461
6.19976
6.0661
5.94708
6.06619
6.1999
6.16049
6.02703
5.9098
6.02712
6.16065
6.12817
5.99431
5.87874
5.99439
6.12833
6.10449
5.96947
5.8554
5.96954
6.10463
6.09141
5.95424
5.84143
5.9543
6.09151
6.09117
5.9506
5.83872
5.95065
6.09126
6.1058
5.96034
5.84894
5.96037
6.10586
6.13934
5.9866
5.87505
5.98661
6.13937
6.19532
6.03241
5.91977
6.0324
6.19531
6.27751
6.1004
5.9854
6.10039
6.27749
6.39004
6.19328
6.07415
6.19327
6.39002
6.53649
6.31272
6.18703
6.31271
6.53647
6.71824
6.45777
6.32235
6.45776
6.71823
6.93127
6.62212
6.47322
6.62212
6.93127
7.16273
6.79041
6.6242
6.7904
7.16273
7.38261
6.93362
6.74852
6.93362
7.38261
4.36207
4.27496
4.02425
4.27496
4.36208
5.0338
4.85979
4.63237
4.8598
5.03381
5.43286
5.25311
5.03053
5.25312
5.43287
5.68648
5.50679
5.29164
5.50679
5.6865
5.85047
5.67358
5.46502
5.67359
5.8505
5.95713
5.78296
5.58005
5.78298
5.95715
6.02431
5.85265
5.65458
5.85267
6.02426
6.06307
5.89375
5.69988
5.89373
6.06292
6.0806
5.91351
5.72337
5.91347
6.0804
6.08191
5.91691
5.73017
5.91689
6.08165
6.07155
5.90846
5.7247
5.90842
6.07121
6.05063
5.88967
5.7089
5.88956
6.05032
6.02174
5.86279
5.68471
5.86261
6.02148
5.98671
5.8297
5.65418
5.82951
5.98644
5.9466
5.79154
5.61859
5.79142
5.94637
5.90251
5.74949
5.57904
5.74942
5.90236
5.85566
5.7046
5.53658
5.70453
5.85547
5.80688
5.65778
5.49215
5.6577
5.80668
5.75707
5.60988
5.44662
5.6098
5.75675
5.70703
5.5617
5.40081
5.56159
5.70655
5.65763
5.51409
5.35563
5.51405
5.65736
5.60991
5.46801
5.31196
5.46807
5.60991
5.56494
5.4244
5.27076
5.42455
5.56506
5.52379
5.38431
5.23305
5.38452
5.52404
5.48763
5.34886
5.19997
5.34912
5.48797
5.4579
5.31941
5.17285
5.31965
5.45831
5.43647
5.29759
5.1533
5.29777
5.43686
5.42541
5.2853
5.14319
5.28544
5.4257
5.42723
5.28484
5.1447
5.28496
5.42736
5.44453
5.2984
5.16004
5.2985
5.44457
5.48268
5.3308
5.19381
5.33084
5.48273
5.54711
5.38659
5.25023
5.38656
5.54705
5.6448
5.47143
5.33464
5.47139
5.64468
5.78523
5.59285
5.45389
5.59281
5.78515
5.98101
5.76014
5.61618
5.76012
5.98096
6.24847
5.98377
5.83017
5.98375
6.24844
6.60527
6.27201
6.10154
6.272
6.60526
7.06236
6.62438
6.42688
6.62437
7.06235
7.59642
7.00517
6.77071
7.00516
7.59642
3.25398
3.29242
3.01085
3.29243
3.25399
3.97197
3.8553
3.58501
3.85531
3.97198
4.35222
4.21006
3.93655
4.21006
4.35224
4.57375
4.42503
4.15677
4.42503
4.57377
4.7121
4.56233
4.29936
4.56234
4.71211
4.80121
4.65116
4.39285
4.65111
4.80101
4.85729
4.70735
4.45312
4.70708
4.85658
4.88908
4.74024
4.48971
4.73979
4.88868
4.90371
4.75589
4.50877
4.7553
4.90267
4.90583
4.75833
4.51434
4.75745
4.90326
4.89708
4.75143
4.51031
4.75051
4.89452
4.88051
4.73621
4.49807
4.73556
4.87929
4.85747
4.7145
4.47903
4.71412
4.8577
4.83057
4.68815
4.45508
4.68778
4.83045
4.8009
4.65788
4.42708
4.65739
4.80003
4.76491
4.62402
4.39575
4.62369
4.76546
4.72722
4.58803
4.3621
4.58767
4.72897
4.69009
4.55065
4.3269
4.55015
4.68925
4.6523
4.51237
4.29071
4.51148
4.64867
4.6127
4.47358
4.25413
4.47228
4.60757
4.57327
4.4351
4.21809
4.43428
4.56946
4.53522
4.39784
4.18332
4.39749
4.53385
4.49957
4.36264
4.15055
4.36242
4.49848
4.4671
4.33033
4.12071
4.33032
4.46515
4.43743
4.30161
4.09471
4.30184
4.43523
4.41342
4.2778
4.07374
4.27825
4.41345
4.39792
4.26066
4.05939
4.26107
4.39785
4.39081
4.25175
4.0534
4.25196
4.39001
4.39505
4.25318
4.05754
4.25309
4.39437
4.41216
4.26709
4.07436
4.26701
4.41129
4.44841
4.29884
4.10901
4.29899
4.44954
4.51339
4.35414
4.16666
4.35407
4.51416
4.61301
4.44013
4.25468
4.43988
4.61202
4.75665
4.56768
4.38386
4.56753
4.7561
4.96232
4.75408
4.57091
4.75402
4.96215
5.27287
5.02953
4.84318
5.0295
5.27281
5.75968
5.44128
5.24191
5.44126
5.75965
6.53367
6.05326
5.81802
6.05325
6.53366
7.74301
6.92454
6.6293
6.92454
7.743
0.96512
1.205
1.10118
1.205
0.965126
1.53235
1.54319
1.43617
1.54319
1.53236
1.75711
1.71741
1.60438
1.71741
1.75712
1.87103
1.82052
1.70752
1.82052
1.87104
1.93989
1.88649
1.77451
1.88649
1.9399
1.98463
1.93004
1.81911
1.93003
1.98458
2.01372
1.9585
1.84861
1.9584
2.01335
2.03148
1.97614
1.86727
1.97591
2.03099
2.04108
1.98568
1.87787
1.98538
2.0403
2.04427
1.98868
1.88207
1.98831
2.04294
2.04288
1.98744
1.88168
1.98703
2.04144
2.03801
1.98254
1.87802
1.98222
2.0372
2.0297
1.97413
1.87064
1.97384
2.02945
2.01984
1.96359
1.86101
1.96327
2.01936
2.00835
1.95108
1.84946
1.95082
2.00776
1.99403
1.93687
1.83628
1.93672
1.99409
1.97922
1.92168
1.82197
1.92146
1.97938
1.96425
1.90574
1.80691
1.9055
1.96368
1.94886
1.88935
1.79154
1.88902
1.94741
1.93285
1.87276
1.77616
1.87224
1.93035
1.91665
1.85625
1.76097
1.85599
1.91516
1.90115
1.84034
1.74632
1.84031
1.90079
1.88671
1.82539
1.73252
1.82545
1.88645
1.87386
1.81186
1.71999
1.812
1.87349
1.8623
1.80004
1.70916
1.80026
1.86193
1.85283
1.79051
1.70057
1.79084
1.85343
1.84733
1.78429
1.69494
1.78452
1.84767
1.84585
1.78234
1.69325
1.78247
1.84582
1.84898
1.78532
1.6965
1.78537
1.84877
1.85796
1.79504
1.70655
1.7951
1.85772
1.87587
1.81483
1.72652
1.81492
1.87648
1.90657
1.84774
1.75914
1.84764
1.90653
1.95202
1.89852
1.80926
1.89839
1.95142
2.01632
1.97406
1.88367
1.97401
2.01611
2.13424
2.08606
1.99289
2.08605
2.13421
2.31164
2.25348
2.15517
2.25347
2.31163
2.58568
2.50911
2.40145
2.50911
2.58568
3.12246
2.94158
2.8018
2.94157
3.12246
4.99234
4.20745
3.94597
4.20745
4.99234
1.11026
1.02139
0.964982
1.02139
1.11026
2.79659
2.67296
2.47125
2.67297
2.7966
3.50385
3.39812
3.25729