/*--------------------------------*- C++ -*----------------------------------*\
  =========                 |
  \\      /  F ield         | OpenFOAM: The Open Source CFD Toolbox
   \\    /   O peration     | Website:  https://openfoam.org
    \\  /    A nd           | Version:  9
     \\/     M anipulation  |
\*---------------------------------------------------------------------------*/
FoamFile
{
    format      ascii;
    class       volScalarField;
    location    "5";
    object      nut;
}
// * * * * * * * * * * * * * * * * * * * * * * * * * * * * * * * * * * * * * //

dimensions      [0 2 -1 0 0 0 0];

internalField   nonuniform List<scalar> 
4545
(
0.0058529
0.00653167
0.00624833
0.00653168
0.00585292
0.00733616
0.00736051
0.00710264
0.00736051
0.00733617
0.0078448
0.00775706
0.00749885
0.00775706
0.0078448
0.00809299
0.00798543
0.00773485
0.00798543
0.008093
0.00824241
0.00813098
0.00788714
0.00813098
0.00824242
0.00834095
0.00822855
0.00798983
0.00822857
0.00834099
0.00840771
0.00829503
0.00806032
0.00829502
0.00840777
0.00845055
0.00833993
0.00810854
0.00833992
0.00845161
0.00847915
0.00836893
0.00814069
0.00836919
0.00848077
0.00849571
0.00838644
0.00816093
0.00838692
0.00849762
0.00850242
0.00839548
0.00817198
0.00839556
0.0085061
0.00850545
0.00839753
0.00817567
0.00839726
0.00850698
0.00850253
0.00839435
0.00817398
0.00839423
0.00850184
0.00849509
0.0083864
0.00816722
0.00838576
0.00849593
0.00848364
0.00837342
0.00815548
0.00837269
0.00848357
0.00846747
0.00835654
0.00814006
0.00835654
0.00846724
0.00844801
0.00833635
0.0081209
0.00833621
0.00845128
0.00842953
0.00831294
0.00809812
0.00831214
0.00843202
0.00840493
0.00828618
0.0080718
0.00828476
0.00840366
0.00837305
0.00825502
0.0080415
0.00825333
0.00837006
0.00834199
0.008219
0.00800708
0.00821873
0.00833718
0.0083029
0.00817868
0.00796834
0.00817958
0.00830425
0.00826186
0.00813477
0.00792502
0.00813531
0.00826279
0.00821705
0.00808622
0.00787695
0.00808695
0.00821444
0.00816525
0.00803159
0.00782374
0.00803325
0.0081646
0.00811169
0.00797167
0.00776509
0.00797339
0.0081115
0.00804975
0.00790601
0.00770061
0.00790761
0.00805284
0.00798039
0.00783467
0.00763059
0.00783544
0.00798324
0.00790405
0.00775708
0.0075561
0.00775722
0.00790522
0.00782278
0.00767217
0.00747543
0.00767253
0.00782574
0.00774066
0.00758105
0.00738838
0.00758119
0.00774391
0.0076528
0.00748308
0.00729476
0.00748307
0.00765286
0.00755253
0.00737775
0.0071941
0.00737772
0.00755229
0.0074469
0.00726488
0.00708604
0.00726479
0.00744668
0.00733502
0.00714388
0.00697024
0.0071438
0.00733489
0.00721353
0.00701473
0.00684615
0.0070147
0.00721351
0.00708419
0.006877
0.00671293
0.00687701
0.00708421
0.00694687
0.00672915
0.00656903
0.00672917
0.0069469
0.00679887
0.00656633
0.0064122
0.00656635
0.0067989
0.0531668
0.0557167
0.0549917
0.0557167
0.0531668
0.0591676
0.0609537
0.0604162
0.0609537
0.0591677
0.0621734
0.0641011
0.0636595
0.0641012
0.0621734
0.0641966
0.0662195
0.0658467
0.0662196
0.0641967
0.0656977
0.0677427
0.0674029
0.0677428
0.0656978
0.0668217
0.0688628
0.0685396
0.0688627
0.0668214
0.0676624
0.069692
0.0693778
0.0696912
0.0676612
0.0682816
0.0703024
0.0699948
0.070302
0.0682828
0.0687392
0.0707439
0.0704423
0.0707445
0.0687417
0.0690599
0.0710511
0.0707551
0.0710521
0.0690623
0.0692627
0.0712453
0.070959
0.0712443
0.0692674
0.0694049
0.0713698
0.0710786
0.0713658
0.069408
0.0694789
0.0714251
0.0711411
0.0714227
0.0694754
0.0694843
0.0714113
0.0711274
0.0714087
0.0694887
0.0694349
0.0713405
0.0710597
0.0713405
0.0694462
0.0693329
0.0712185
0.0709417
0.0712249
0.0693451
0.06919
0.0710534
0.0707777
0.0710596
0.0692118
0.0690158
0.0708473
0.0705696
0.0708476
0.0690349
0.0687821
0.0705955
0.0703168
0.07059
0.0687877
0.0684902
0.070294
0.0700173
0.070286
0.0684924
0.0681722
0.0699461
0.0696704
0.0699387
0.0681514
0.0677953
0.0695494
0.0692748
0.0695397
0.0677687
0.0673622
0.069104
0.0688294
0.0690897
0.0673313
0.0668658
0.0686046
0.0683327
0.0685917
0.066821
0.0662999
0.0680432
0.0677795
0.0680347
0.066252
0.0656747
0.0674207
0.0671653
0.0674121
0.0656266
0.0649677
0.0667318
0.0664844
0.0667252
0.0649366
0.064172
0.0659707
0.0657178
0.0659694
0.0641644
0.0632952
0.0651345
0.0648503
0.0651363
0.0632978
0.0623571
0.0642266
0.0639014
0.0642285
0.0623621
0.0613541
0.0632489
0.06288
0.0632496
0.0613627
0.0602707
0.0621976
0.0617848
0.0621959
0.0602715
0.0590987
0.0610707
0.0606125
0.0610685
0.0590967
0.0578589
0.0598691
0.0593616
0.059867
0.0578553
0.0565533
0.0585896
0.0580301
0.058587
0.0565492
0.0551718
0.0572282
0.0566145
0.0572262
0.0551684
0.0537202
0.0557787
0.0551072
0.0557775
0.0537182
0.0522041
0.0542264
0.0534945
0.0542258
0.0522031
0.0506216
0.0525389
0.0517605
0.0525388
0.0506213
0.0894762
0.0910328
0.0906233
0.0910329
0.0894764
0.0994559
0.100147
0.099901
0.100147
0.099456
0.105423
0.106133
0.105952
0.106133
0.105423
0.109583
0.110358
0.110234
0.110358
0.109583
0.112672
0.113488
0.1134
0.113488
0.112672
0.115019
0.115858
0.115794
0.115858
0.115019
0.116816
0.117668
0.11762
0.117667
0.116815
0.11819
0.119048
0.119012
0.119047
0.118189
0.119231
0.120091
0.120064
0.12009
0.119229
0.119984
0.120847
0.120834
0.120846
0.119981
0.120526
0.121387
0.121376
0.121385
0.120522
0.120909
0.121769
0.121762
0.121766
0.120907
0.121136
0.121994
0.121997
0.121992
0.121135
0.121224
0.122079
0.122085
0.122078
0.121226
0.121197
0.122047
0.122058
0.122048
0.121204
0.121067
0.12191
0.121926
0.121914
0.121073
0.120843
0.121679
0.121698
0.121682
0.120849
0.120527
0.121357
0.121377
0.121358
0.120533
0.120119
0.120944
0.120967
0.120943
0.120123
0.119623
0.120442
0.120466
0.120438
0.119625
0.119043
0.11985
0.119875
0.119842
0.119031
0.11837
0.119167
0.119191
0.119154
0.118344
0.117595
0.118387
0.118413
0.118371
0.117564
0.116714
0.117507
0.117535
0.11749
0.116681
0.115728
0.11652
0.116553
0.116505
0.11569
0.114627
0.115422
0.115461
0.115408
0.114591
0.113405
0.114207
0.114252
0.114196
0.113377
0.112055
0.112869
0.112918
0.112863
0.112041
0.110578
0.111403
0.111455
0.111401
0.110573
0.108974
0.109808
0.109856
0.109807
0.10897
0.107231
0.108077
0.108121
0.108076
0.107228
0.105344
0.106206
0.106245
0.106204
0.105342
0.103314
0.104187
0.104221
0.104185
0.10331
0.101133
0.102015
0.102041
0.102013
0.101129
0.0987964
0.0996808
0.0996966
0.0996781
0.0987922
0.0962914
0.0971707
0.097173
0.0971685
0.0962878
0.0936034
0.094467
0.0944519
0.0944654
0.0936008
0.0907125
0.0915431
0.091507
0.0915422
0.0907108
0.087582
0.0883602
0.0883089
0.0883597
0.0875811
0.117274
0.118311
0.117878
0.118311
0.117274
0.129507
0.129588
0.129253
0.129589
0.129507
0.13765
0.137654
0.13734
0.137654
0.13765
0.143551
0.143572
0.143292
0.143572
0.143552
0.148003
0.148047
0.147794
0.148047
0.148003
0.151428
0.151487
0.151255
0.151487
0.151428
0.154081
0.154151
0.153934
0.154151
0.154081
0.156136
0.156212
0.156006
0.156211
0.156136
0.157712
0.157794
0.157597
0.157793
0.157711
0.15888
0.158962
0.158778
0.158961
0.158878
0.15975
0.159834
0.159653
0.159833
0.159749
0.160379
0.160462
0.160285
0.16046
0.160378
0.16078
0.160861
0.160693
0.16086
0.160778
0.160982
0.161061
0.160897
0.161061
0.160981
0.161016
0.161093
0.160933
0.161093
0.161018
0.160902
0.160975
0.160819
0.160976
0.160904
0.160652
0.16072
0.160568
0.160721
0.160653
0.160273
0.160337
0.160187
0.160336
0.160273
0.159769
0.15983
0.159682
0.159828
0.159767
0.159144
0.1592
0.159056
0.159197
0.15914
0.158399
0.158451
0.158307
0.158445
0.158389
0.15753
0.157578
0.157437
0.15757
0.157516
0.156533
0.156579
0.15644
0.15657
0.156517
0.155404
0.15545
0.155315
0.155441
0.155386
0.154138
0.154185
0.154053
0.154176
0.154119
0.152726
0.152777
0.152649
0.152769
0.15271
0.151163
0.151218
0.151095
0.151212
0.15115
0.14944
0.149502
0.149383
0.149498
0.149433
0.147551
0.147619
0.147504
0.147617
0.147547
0.145488
0.145562
0.14545
0.145561
0.145485
0.143238
0.14332
0.143208
0.143318
0.143235
0.14079
0.140879
0.140769
0.140878
0.140787
0.138131
0.138228
0.138117
0.138226
0.138128
0.135246
0.135347
0.135235
0.135345
0.135243
0.132114
0.132218
0.132102
0.132216
0.132111
0.12871
0.128814
0.128692
0.128812
0.128707
0.124999
0.125099
0.12497
0.125098
0.124997
0.120939
0.121026
0.120898
0.121025
0.120938
0.116459
0.116528
0.11641
0.116528
0.116458
0.139238
0.140013
0.139557
0.140014
0.139238
0.152743
0.152532
0.152124
0.152533
0.152743
0.162332
0.162007
0.161596
0.162007
0.162333
0.169522
0.169189
0.168799
0.16919
0.169523
0.175044
0.174722
0.174352
0.174722
0.175044
0.179341
0.179028
0.178675
0.179028
0.179341
0.182699
0.182394
0.182054
0.182394
0.182699
0.185322
0.18502
0.18469
0.18502
0.185322
0.187344
0.187049
0.18673
0.187049
0.187344
0.188871
0.188574
0.188262
0.188574
0.188871
0.190022
0.189726
0.189419
0.189725
0.190021
0.190863
0.190565
0.190262
0.190565
0.190862
0.191418
0.19112
0.190824
0.191119
0.191417
0.191725
0.191425
0.191133
0.191424
0.191725
0.191824
0.191521
0.191233
0.19152
0.191824
0.191738
0.191431
0.191147
0.191431
0.191738
0.191484
0.191174
0.190893
0.191173
0.191483
0.191074
0.19076
0.190482
0.190759
0.191072
0.190515
0.190198
0.189923
0.190196
0.190512
0.189812
0.189492
0.18922
0.18949
0.189809
0.188968
0.188645
0.188376
0.188642
0.188963
0.187982
0.187657
0.18739
0.187653
0.187974
0.18685
0.186524
0.18626
0.186519
0.186842
0.185568
0.185243
0.184982
0.185238
0.185559
0.18413
0.183806
0.183549
0.183802
0.184122
0.182528
0.182207
0.181953
0.182203
0.182521
0.180753
0.180435
0.180186
0.180433
0.180747
0.178793
0.178481
0.178234
0.178479
0.17879
0.176638
0.17633
0.176087
0.176328
0.176635
0.174271
0.173968
0.173728
0.173967
0.174269
0.171676
0.171379
0.17114
0.171378
0.171674
0.168833
0.168541
0.168304
0.16854
0.168831
0.165719
0.165431
0.165195
0.16543
0.165717
0.162305
0.162022
0.161786
0.162021
0.162303
0.158558
0.15828
0.158048
0.158279
0.158556
0.154435
0.154164
0.153937
0.154163
0.154433
0.149887
0.149622
0.1494
0.149621
0.149886
0.144851
0.144594
0.144367
0.144594
0.14485
0.139241
0.138986
0.138759
0.138986
0.13924
0.156433
0.157071
0.156612
0.157071
0.156434
0.170691
0.170342
0.1699
0.170342
0.170691
0.181228
0.180753
0.180298
0.180753
0.181228
0.189332
0.188841
0.1884
0.188841
0.189333
0.195654
0.195167
0.194743
0.195167
0.195654
0.200622
0.200142
0.199732
0.200142
0.200622
0.204533
0.204058
0.20366
0.204058
0.204533
0.207605
0.207132
0.206743
0.207132
0.207605
0.209983
0.209517
0.209141
0.209517
0.209983
0.211798
0.211329
0.210955
0.211329
0.211798
0.213172
0.212704
0.212338
0.212704
0.213172
0.214184
0.213714
0.213351
0.213714
0.214184
0.214865
0.214395
0.214039
0.214395
0.214865
0.215261
0.214788
0.214435
0.214787
0.21526
0.215416
0.21494
0.214591
0.21494
0.215415
0.215359
0.214881
0.214535
0.21488
0.215359
0.215112
0.214631
0.214288
0.21463
0.215111
0.214691
0.214206
0.213867
0.214205
0.214689
0.214105
0.213618
0.213281
0.213616
0.214103
0.213363
0.212873
0.212539
0.212871
0.213361
0.212468
0.211976
0.211645
0.211974
0.212465
0.211421
0.210927
0.2106
0.210925
0.211418
0.21022
0.209725
0.209401
0.209723
0.210216
0.20886
0.208365
0.208044
0.208363
0.208856
0.207334
0.206841
0.206523
0.206839
0.207331
0.205634
0.205142
0.204827
0.20514
0.205631
0.203747
0.203257
0.202945
0.203255
0.203744
0.201658
0.201171
0.200862
0.20117
0.201656
0.19935
0.198865
0.198559
0.198865
0.199348
0.196802
0.196321
0.196017
0.19632
0.196801
0.19399
0.193512
0.19321
0.193511
0.193989
0.190885
0.19041
0.190113
0.19041
0.190884
0.187454
0.186984
0.186692
0.186984
0.187453
0.183661
0.183199
0.182909
0.183198
0.18366
0.179464
0.179007
0.178714
0.179006
0.179463
0.174805
0.174351
0.174052
0.17435
0.174804
0.169612
0.169159
0.168857
0.169159
0.169611
0.163798
0.163342
0.163044
0.163342
0.163797
0.157248
0.156794
0.156511
0.156794
0.157248
0.169403
0.169962
0.16951
0.169963
0.169403
0.184121
0.183703
0.18325
0.183703
0.184121
0.195273
0.194728
0.194256
0.194728
0.195273
0.204004
0.203438
0.202978
0.203439
0.204004
0.210894
0.210332
0.209886
0.210332
0.210895
0.216352
0.215795
0.215363
0.215795
0.216352
0.220672
0.220119
0.219698
0.220119
0.220673
0.224079
0.223528
0.223116
0.223528
0.224079
0.226724
0.226179
0.22578
0.226179
0.226724
0.228755
0.228207
0.227809
0.228207
0.228756
0.230297
0.22975
0.229359
0.22975
0.230297
0.231437
0.230888
0.2305
0.230888
0.231437
0.232212
0.231663
0.231282
0.231663
0.232212
0.232674
0.232123
0.231746
0.232123
0.232674
0.232874
0.232321
0.231947
0.23232
0.232874
0.232844
0.232288
0.231917
0.232288
0.232844
0.23261
0.232051
0.231684
0.232051
0.232609
0.23219
0.231629
0.231264
0.231628
0.232189
0.231599
0.231035
0.230674
0.231035
0.231598
0.230847
0.23028
0.229921
0.230279
0.230845
0.229938
0.229369
0.229013
0.229368
0.229936
0.228875
0.228304
0.227952
0.228303
0.228873
0.227656
0.227085
0.226735
0.227084
0.227655
0.226278
0.225706
0.225359
0.225705
0.226277
0.224733
0.224161
0.223816
0.22416
0.224731
0.223009
0.222437
0.222095
0.222436
0.223007
0.221091
0.22052
0.220181
0.220519
0.22109
0.218962
0.218391
0.218055
0.21839
0.218961
0.216598
0.216027
0.215694
0.216027
0.216597
0.213972
0.213403
0.213073
0.213403
0.213972
0.211055
0.210488
0.210161
0.210488
0.211055
0.207814
0.207247
0.206918
0.207246
0.207814
0.204203
0.203633
0.203303
0.203633
0.204202
0.200168
0.199596
0.199266
0.199596
0.200168
0.195649
0.195077
0.19475
0.195077
0.195648
0.190578
0.190011
0.189687
0.190011
0.190577
0.184877
0.18432
0.183998
0.18432
0.184877
0.178454
0.177905
0.177589
0.177904
0.178454
0.171187
0.170646
0.170346
0.170646
0.171187
0.178461
0.178976
0.178532
0.178977
0.178462
0.193458
0.193005
0.192549
0.193006
0.193459
0.204994
0.204415
0.203938
0.204415
0.204995
0.214128
0.213528
0.213061
0.213528
0.214129
0.221395
0.220797
0.220344
0.220797
0.221395
0.227181
0.226588
0.226148
0.226588
0.227182
0.231779
0.231189
0.23076
0.231189
0.231779
0.235413
0.234825
0.234404
0.234826
0.235413
0.238237
0.237656
0.237248
0.237656
0.238238
0.240415
0.23983
0.239423
0.23983
0.240415
0.242068
0.241485
0.241085
0.241485
0.242068
0.243294
0.24271
0.242313
0.24271
0.243295
0.244131
0.243546
0.243157
0.243546
0.244131
0.244637
0.244051
0.243665
0.244051
0.244637
0.244868
0.24428
0.243897
0.24428
0.244868
0.244858
0.244268
0.243889
0.244268
0.244858
0.244638
0.244046
0.243669
0.244046
0.244638
0.244229
0.243634
0.243261
0.243634
0.244229
0.243648
0.243051
0.242681
0.243051
0.243648
0.242907
0.242308
0.24194
0.242307
0.242907
0.242013
0.241412
0.241047
0.241411
0.242012
0.24097
0.240366
0.240004
0.240366
0.240969
0.239777
0.239172
0.238812
0.239171
0.239776
0.23843
0.237823
0.237466
0.237823
0.23843
0.236921
0.236313
0.235958
0.236312
0.236921
0.235237
0.234627
0.234275
0.234627
0.235237
0.23336
0.232749
0.232399
0.232748
0.23336
0.231269
0.230655
0.230308
0.230655
0.231268
0.228935
0.22832
0.227975
0.22832
0.228934
0.226329
0.225711
0.225366
0.225711
0.226329
0.22341
0.222787
0.222443
0.222787
0.22341
0.220131
0.219504
0.219162
0.219504
0.22013
0.21644
0.215812
0.21547
0.215812
0.21644
0.212282
0.211651
0.211311
0.211651
0.212282
0.207586
0.206955
0.206616
0.206955
0.207586
0.202274
0.201645
0.201309
0.201645
0.202274
0.196257
0.195634
0.195301
0.195634
0.196257
0.189432
0.188815
0.188489
0.188815
0.189431
0.18167
0.181062
0.180752
0.181062
0.18167
0.183796
0.184287
0.183848
0.184287
0.183797
0.198946
0.198476
0.19802
0.198476
0.198947
0.210693
0.210097
0.209619
0.210097
0.210693
0.22005
0.219433
0.218964
0.219434
0.220051
0.227527
0.226912
0.226456
0.226912
0.227527
0.233497
0.232887
0.232444
0.232887
0.233498
0.238249
0.237642
0.23721
0.237642
0.238249
0.242008
0.241403
0.240979
0.241403
0.242008
0.244927
0.24433
0.243918
0.24433
0.244928
0.247182
0.246581
0.246171
0.246581
0.247183
0.248892
0.248292
0.24789
0.248292
0.248892
0.250162
0.249561
0.249162
0.249561
0.250162
0.251024
0.250425
0.250032
0.250425
0.251025
0.251551
0.25095
0.250561
0.25095
0.251551
0.251795
0.251193
0.250808
0.251193
0.251795
0.251798
0.251194
0.250812
0.251194
0.251798
0.25159
0.250984
0.250605
0.250984
0.25159
0.251196
0.250589
0.250213
0.250589
0.251196
0.250637
0.250027
0.249654
0.250027
0.250636
0.249925
0.249313
0.248942
0.249313
0.249924
0.24907
0.248456
0.248088
0.248456
0.24907
0.248077
0.247461
0.247096
0.247461
0.248077
0.246947
0.246328
0.245966
0.246328
0.246946
0.245674
0.245053
0.244693
0.245053
0.245674
0.24425
0.243626
0.243269
0.243626
0.24425
0.242661
0.242034
0.241679
0.242034
0.242661
0.240888
0.240257
0.239903
0.240257
0.240887
0.238904
0.238269
0.237918
0.238269
0.238904
0.236681
0.23604
0.235689
0.23604
0.236681
0.234177
0.23353
0.233181
0.23353
0.234177
0.231349
0.230695
0.230347
0.230695
0.231348
0.228144
0.227484
0.227135
0.227484
0.228144
0.224503
0.223836
0.223488
0.223836
0.224503
0.220358
0.219685
0.219338
0.219685
0.220358
0.215634
0.214957
0.214611
0.214957
0.215634
0.210243
0.209564
0.20922
0.209564
0.210242
0.204087
0.203411
0.203071
0.203411
0.204087
0.197058
0.196386
0.196053
0.196386
0.197058
0.189023
0.188357
0.18804
0.188357
0.189022
0.185511
0.185994
0.185556
0.185994
0.185511
0.200714
0.200239
0.199782
0.200239
0.200715
0.212528
0.211927
0.211449
0.211928
0.212529
0.221953
0.221332
0.220862
0.221332
0.221954
0.22949
0.228871
0.228415
0.228871
0.229491
0.235511
0.234896
0.234453
0.234896
0.235511
0.240301
0.23969
0.239258
0.23969
0.240301
0.244087
0.243479
0.243055
0.243479
0.244088
0.247021
0.24642
0.246009
0.24642
0.247021
0.249288
0.248684
0.248274
0.248684
0.249288
0.251
0.250399
0.249996
0.250399
0.251001
0.252273
0.251671
0.251271
0.251671
0.252273
0.253129
0.252529
0.252136
0.252529
0.25313
0.253652
0.253051
0.252662
0.253051
0.253652
0.253895
0.253293
0.252908
0.253293
0.253895
0.253899
0.253297
0.252915
0.253297
0.2539
0.2537
0.253096
0.252717
0.253096
0.2537
0.253323
0.252718
0.252342
0.252718
0.253323
0.252791
0.252183
0.251811
0.252184
0.25279
0.252119
0.25151
0.251139
0.251509
0.252119
0.251319
0.250707
0.25034
0.250707
0.251319
0.250397
0.249783
0.249418
0.249783
0.250397
0.249356
0.248738
0.248376
0.248738
0.249356
0.24819
0.24757
0.24721
0.24757
0.24819
0.246892
0.246267
0.245909
0.246267
0.246892
0.245446
0.244816
0.24446
0.244816
0.245446
0.243832
0.243196
0.242842
0.243196
0.243832
0.242023
0.24138
0.241026
0.24138
0.242023
0.239982
0.239331
0.238979
0.239331
0.239982
0.237669
0.237008
0.236656
0.237008
0.237668
0.235031
0.23436
0.234008
0.23436
0.235031
0.232012
0.231329
0.230978
0.231329
0.232011
0.228543
0.22785
0.227498
0.22785
0.228543
0.22455
0.223846
0.223495
0.223846
0.22455
0.21995
0.219237
0.218886
0.219237
0.21995
0.214648
0.213929
0.21358
0.213929
0.214648
0.20854
0.20782
0.207474
0.207819
0.20854
0.201512
0.200791
0.200452
0.200791
0.201512
0.193426
0.192707
0.192383
0.192707
0.193426
0.183641
0.184131
0.183691
0.184131
0.183641
0.198807
0.198336
0.197879
0.198336
0.198807
0.210554
0.209958
0.20948
0.209958
0.210554
0.219899
0.219283
0.218814
0.219283
0.2199
0.227355
0.22674
0.226285
0.22674
0.227355
0.233296
0.232686
0.232244
0.232687
0.233296
0.238012
0.237407
0.236975
0.237407
0.238012
0.24173
0.241128
0.240705
0.241129
0.241731
0.244599
0.244005
0.243595
0.244005
0.244599
0.246812
0.246216
0.245807
0.246216
0.246812
0.248475
0.247882
0.24748
0.247882
0.248476
0.249708
0.249115
0.248717
0.249115
0.249708
0.250525
0.249934
0.249543
0.249934
0.250525
0.251018
0.250428
0.250041
0.250429
0.251019
0.251241
0.250651
0.250268
0.250651
0.251241
0.251235
0.250645
0.250265
0.250645
0.251236
0.251037
0.250446
0.25007
0.250447
0.251037
0.250675
0.250083
0.24971
0.250083
0.250675
0.250172
0.249579
0.249208
0.249579
0.250172
0.249547
0.248952
0.248584
0.248952
0.249547
0.248813
0.248215
0.24785
0.248215
0.248813
0.247978
0.247377
0.247015
0.247377
0.247978
0.247046
0.246442
0.246082
0.246442
0.247046
0.246016
0.245407
0.245049
0.245407
0.246016
0.244879
0.244265
0.243909
0.244264
0.244878
0.243619
0.242999
0.242644
0.242998
0.243619
0.242216
0.241587
0.241234
0.241587
0.242216
0.240639
0.24
0.239648
0.24
0.240639
0.23885
0.2382
0.237848
0.2382
0.23885
0.236807
0.236144
0.235792
0.236144
0.236807
0.234457
0.233779
0.233427
0.233779
0.234457
0.231735
0.231041
0.230688
0.231041
0.231735
0.228568
0.227858
0.227504
0.227858
0.228568
0.224869
0.224144
0.22379
0.224144
0.224869
0.220555
0.219814
0.219459
0.219814
0.220555
0.215518
0.214766
0.214413
0.214766
0.215518
0.209653
0.208893
0.208543
0.208893
0.209652
0.202838
0.202072
0.201728
0.202072
0.202838
0.194933
0.194162
0.193833
0.194162
0.194933
0.178161
0.178674
0.178229
0.178674
0.178161
0.193191
0.192736
0.19228
0.192737
0.193191
0.204728
0.204148
0.203671
0.204148
0.204729
0.21384
0.213239
0.212771
0.213239
0.21384
0.221065
0.220467
0.220014
0.220467
0.221065
0.226794
0.226202
0.225762
0.226202
0.226795
0.231322
0.230735
0.230306
0.230735
0.231322
0.234877
0.234293
0.233873
0.234294
0.234877
0.2376
0.237026
0.236619
0.237027
0.237601
0.239695
0.239119
0.238714
0.239119
0.239695
0.24126
0.240686
0.240287
0.240686
0.24126
0.242406
0.241836
0.241443
0.241836
0.242406
0.243153
0.242585
0.242197
0.242585
0.243153
0.243592
0.243025
0.242642
0.243025
0.243592
0.243775
0.243209
0.24283
0.243209
0.243775
0.243745
0.24318
0.242805
0.24318
0.243745
0.243539
0.242974
0.242602
0.242974
0.243539
0.243186
0.24262
0.242252
0.24262
0.243186
0.24271
0.242144
0.24178
0.242144
0.24271
0.242134
0.241566
0.241204
0.241566
0.242134
0.241471
0.240901
0.240542
0.240901
0.241471
0.240732
0.24016
0.239803
0.24016
0.240732
0.239924
0.239348
0.238993
0.239348
0.239924
0.239047
0.238466
0.238113
0.238465
0.239047
0.238096
0.237508
0.237157
0.237508
0.238096
0.237058
0.236462
0.236113
0.236462
0.237058
0.235913
0.235307
0.234959
0.235307
0.235913
0.234632
0.234015
0.233667
0.234014
0.234632
0.233175
0.232544
0.232196
0.232544
0.233175
0.231491
0.230843
0.230495
0.230843
0.231491
0.229518
0.228854
0.228506
0.228854
0.229518
0.227201
0.226507
0.226157
0.226507
0.227201
0.224443
0.223735
0.223382
0.223735
0.224443
0.221182
0.220448
0.220094
0.220448
0.221182
0.217318
0.216561
0.216205
0.216561
0.217318
0.212736
0.211961
0.211608
0.211961
0.212736
0.207319
0.20653
0.20618
0.20653
0.207319
0.200943
0.20014
0.199796
0.20014
0.200943
0.193461
0.192646
0.192316
0.192646
0.193461
0.168978
0.169535
0.169082
0.169535
0.168979
0.183748
0.183328
0.182874
0.183328
0.183749
0.194905
0.194357
0.193885
0.194358
0.194905
0.203604
0.203037
0.202576
0.203038
0.203604
0.210435
0.209873
0.209427
0.209873
0.210435
0.215811
0.215256
0.214824
0.215256
0.215811
0.220031
0.219482
0.219062
0.219483
0.220032
0.223324
0.22278
0.222368
0.22278
0.223324
0.225824
0.22529
0.224892
0.22529
0.225824
0.227734
0.227199
0.226804
0.227199
0.227734
0.229151
0.228618
0.228228
0.228618
0.229151
0.230167
0.22964
0.229258
0.22964
0.230167
0.230813
0.230288
0.229911
0.230288
0.230813
0.231173
0.230651
0.230278
0.23065
0.231173
0.231298
0.230778
0.230409
0.230777
0.231298
0.23123
0.230711
0.230347
0.230711
0.23123
0.231006
0.230488
0.230127
0.230488
0.231006
0.230655
0.230137
0.22978
0.230137
0.230655
0.230203
0.229685
0.229332
0.229685
0.230203
0.229672
0.229153
0.228803
0.229153
0.229672
0.229079
0.228559
0.228211
0.228559
0.229079
0.228438
0.227915
0.22757
0.227915
0.228438
0.227757
0.22723
0.226887
0.22723
0.227757
0.227041
0.226508
0.226167
0.226508
0.227041
0.226287
0.225747
0.225408
0.225747
0.226287
0.225487
0.224938
0.2246
0.224937
0.225487
0.224624
0.224063
0.223726
0.224063
0.224623
0.223672
0.223097
0.22276
0.223097
0.223671
0.222594
0.222003
0.221666
0.222003
0.222594
0.221348
0.220735
0.220397
0.220735
0.221347
0.219883
0.219243
0.218901
0.219243
0.219883
0.218096
0.217436
0.217094
0.217436
0.218096
0.215913
0.215225
0.214882
0.215225
0.215913
0.213232
0.212517
0.212174
0.212517
0.213232
0.209962
0.209218
0.208873
0.209218
0.209961
0.206019
0.205238
0.20489
0.205238
0.206019
0.201273
0.20047
0.200123
0.20047
0.201273
0.195579
0.194756
0.194418
0.194756
0.195579
0.188788
0.187942
0.187617
0.187942
0.188788
0.155917
0.15655
0.156089
0.156551
0.155917
0.170248
0.169895
0.169452
0.169895
0.170249
0.180794
0.180316
0.17986
0.180316
0.180794
0.18886
0.188366
0.187925
0.188367
0.18886
0.195108
0.194621
0.194197
0.194622
0.195108
0.199974
0.199496
0.199087
0.199496
0.199974
0.203761
0.203291
0.202894
0.203291
0.203761
0.206691
0.206226
0.205839
0.206226
0.206691
0.208887
0.208435
0.208062
0.208434
0.208886
0.210548
0.210096
0.209725
0.210095
0.210548
0.211769
0.211319
0.210953
0.211318
0.211768
0.212613
0.212171
0.211815
0.212171
0.212613
0.213128
0.212689
0.212338
0.212689
0.213128
0.213387
0.212951
0.212605
0.212951
0.213387
0.213438
0.213005
0.212663
0.213004
0.213437
0.213319
0.212889
0.212552
0.212888
0.213319
0.213067
0.212638
0.212306
0.212638
0.213067
0.21271
0.212283
0.211954
0.212283
0.21271
0.212275
0.211849
0.211523
0.211848
0.212275
0.211783
0.211357
0.211035
0.211357
0.211783
0.211254
0.210827
0.210507
0.210827
0.211254
0.210704
0.210274
0.209957
0.210274
0.210704
0.210145
0.209711
0.209396
0.20971
0.210144
0.209584
0.209144
0.208831
0.209143
0.209583
0.209025
0.208577
0.208266
0.208577
0.209024
0.208466
0.208007
0.207696
0.208006
0.208464
0.207894
0.207422
0.207112
0.207422
0.207893
0.207291
0.206803
0.206492
0.206803
0.20729
0.206626
0.20612
0.205808
0.206119
0.206625
0.205878
0.205338
0.205021
0.205337
0.205878
0.20496
0.204403
0.204085
0.204403
0.20496
0.203797
0.203204
0.202884
0.203204
0.203797
0.202325
0.201695
0.20137
0.201695
0.202326
0.200432
0.199765
0.199439
0.199765
0.200432
0.197998
0.197296
0.196971
0.197296
0.197998
0.194892
0.194156
0.193836
0.194157
0.194892
0.191025
0.190237
0.18992
0.190237
0.191025
0.186278
0.185476
0.185168
0.185476
0.186278
0.180489
0.179653
0.179355
0.179653
0.180489
0.138676
0.139447
0.138987
0.139447
0.138677
0.152278
0.152061
0.151651
0.152062
0.152279
0.161881
0.161551
0.161139
0.161551
0.161881
0.169029
0.168693
0.168303
0.168694
0.169029
0.174468
0.174146
0.173776
0.174146
0.174469
0.178651
0.178341
0.177989
0.178341
0.178651
0.18187
0.18157
0.181231
0.18157
0.181869
0.184333
0.18404
0.183711
0.184039
0.184332
0.186148
0.18587
0.185558
0.185869
0.186147
0.187498
0.18722
0.18691
0.187219
0.187497
0.188475
0.188201
0.187896
0.1882
0.188474
0.189115
0.18885
0.188555
0.188849
0.189113
0.189473
0.189213
0.188925
0.189213
0.189473
0.189613
0.189358
0.189075
0.189357
0.189613
0.189576
0.189325
0.189047
0.189325
0.189576
0.189399
0.189151
0.188878
0.189151
0.189398
0.189113
0.188868
0.1886
0.188868
0.189112
0.188745
0.188503
0.188239
0.188503
0.188744
0.18832
0.18808
0.18782
0.18808
0.18832
0.18786
0.187621
0.187364
0.187621
0.18786
0.187385
0.187145
0.186892
0.187145
0.187385
0.186913
0.186671
0.18642
0.18667
0.186912
0.186458
0.186213
0.185964
0.186211
0.186456
0.186034
0.185782
0.185535
0.18578
0.18603
0.185648
0.185388
0.185142
0.185386
0.185645
0.185306
0.185035
0.184789
0.185033
0.185303
0.185007
0.184721
0.184475
0.184719
0.185004
0.184742
0.184436
0.184188
0.184435
0.18474
0.184492
0.184162
0.183911
0.184162
0.184491
0.184246
0.183884
0.183629
0.183884
0.184246
0.183924
0.183528
0.183267
0.183528
0.183925
0.183477
0.183038
0.18277
0.183038
0.183478
0.18282
0.182333
0.182058
0.182334
0.182821
0.181849
0.181311
0.18103
0.181311
0.181849
0.180443
0.179854
0.179572
0.179855
0.180444
0.178467
0.177837
0.177561
0.177837
0.178467
0.175774
0.175112
0.17485
0.175112
0.175774
0.172288
0.171558
0.17131
0.171558
0.172288
0.16784
0.167068
0.166844
0.167068
0.16784
0.116731
0.11776
0.117321
0.11776
0.116731
0.129081
0.129153
0.128814
0.129153
0.129081
0.137241
0.137238
0.136922
0.137239
0.137242
0.143101
0.143117
0.142836
0.143117
0.143101
0.147469
0.147511
0.147259
0.147511
0.147469
0.150778
0.15084
0.150608
0.150839
0.150778
0.153289
0.153365
0.153149
0.153364
0.153288
0.155181
0.155267
0.155062
0.155266
0.15518
0.156546
0.156649
0.156462
0.156647
0.156544
0.157526
0.157632
0.157448
0.157629
0.157524
0.158221
0.158331
0.158153
0.158329
0.158219
0.158631
0.158753
0.158587
0.158752
0.15863
0.158819
0.158947
0.158789
0.158947
0.15882
0.158831
0.158967
0.158815
0.158968
0.158834
0.158705
0.158847
0.158702
0.158847
0.158707
0.158471
0.158618
0.158478
0.158618
0.158471
0.158154
0.158306
0.158172
0.158306
0.158154
0.157778
0.157935
0.157805
0.157934
0.157778
0.157364
0.157524
0.1574
0.157524
0.157365
0.156933
0.157095
0.156975
0.157095
0.156935
0.156504
0.156667
0.15655
0.156666
0.156504
0.156095
0.156256
0.156143
0.156255
0.156092
0.155721
0.15588
0.155768
0.155876
0.155715
0.155399
0.155553
0.155443
0.155548
0.155391
0.155143
0.155289
0.15518
0.155284
0.155134
0.154966
0.1551
0.154991
0.155095
0.154957
0.154877
0.154995
0.154886
0.154992
0.154871
0.154884
0.15498
0.154868
0.154977
0.15488
0.154988
0.155052
0.154935
0.155051
0.154985
0.155178
0.155201
0.155076
0.155201
0.155177
0.155443
0.155416
0.155278
0.155417
0.155444
0.15572
0.155631
0.155477
0.155633
0.155722
0.15595
0.155787
0.155615
0.155788
0.155952
0.15603
0.155788
0.1556
0.155789
0.156032
0.155833
0.155515
0.155318
0.155515
0.155834
0.155212
0.154831
0.154641
0.154831
0.155213
0.154012
0.153599
0.153441
0.153599
0.154012
0.152139
0.151712
0.151608
0.151712
0.152139
0.149572
0.149104
0.149052
0.149104
0.149572
0.0890377
0.0905815
0.0901639
0.0905816
0.089038
0.0991419
0.0998176
0.0995665
0.0998177
0.0991422
0.105125
0.105823
0.105639
0.105823
0.105125
0.109245
0.110014
0.109888
0.110014
0.109246
0.112261
0.113075
0.112986
0.113075
0.112261
0.114506
0.115348
0.115285
0.115348
0.114506
0.116176
0.117038
0.116992
0.117037
0.116176
0.117403
0.118279
0.118246
0.118277
0.117405
0.118263
0.119156
0.119139
0.119154
0.118264
0.118835
0.119733
0.119725
0.11973
0.118837
0.119225
0.12013
0.120126
0.120127
0.119229
0.119404
0.120321
0.120332
0.120321
0.119408
0.119427
0.120353
0.120373
0.120356
0.119435
0.119326
0.120264
0.120293
0.120268
0.119336
0.119131
0.12008
0.120116
0.120082
0.119138
0.118867
0.119822
0.119864
0.119822
0.118869
0.118544
0.119509
0.119557
0.119508
0.118547
0.118183
0.119156
0.119212
0.119155
0.118187
0.1178
0.11878
0.118842
0.118781
0.117807
0.117413
0.118398
0.118465
0.118399
0.117424
0.117038
0.118025
0.118096
0.118025
0.117043
0.116689
0.117676
0.11775
0.117672
0.116685
0.116379