/*--------------------------------*- C++ -*----------------------------------*\
  =========                 |
  \\      /  F ield         | OpenFOAM: The Open Source CFD Toolbox
   \\    /   O peration     | Website:  https://openfoam.org
    \\  /    A nd           | Version:  9
     \\/     M anipulation  |
\*---------------------------------------------------------------------------*/
FoamFile
{
    format      ascii;
    class       volScalarField;
    location    "5";
    object      p;
}
// * * * * * * * * * * * * * * * * * * * * * * * * * * * * * * * * * * * * * //

dimensions      [0 2 -2 0 0 0 0];

internalField   nonuniform List<scalar> 
4545
(
19.9287
20.1745
20.1294
20.1745
19.9287
19.9099
20.2165
20.1706
20.2165
19.9099
19.8636
20.2805
20.2353
20.2805
19.8636
19.801
20.3187
20.289
20.3187
19.8009
19.7591
20.3398
20.3282
20.3398
19.7591
19.7339
20.3518
20.355
20.3519
19.734
19.7178
20.3587
20.3725
20.3588
19.7182
19.706
20.363
20.3835
20.3627
19.7072
19.7007
20.3635
20.3889
20.3635
19.7009
19.6968
20.3626
20.3911
20.3632
19.6961
19.6893
20.3622
20.3914
20.3611
19.6942
19.6859
20.359
20.3895
20.3581
19.692
19.6839
20.3549
20.3866
20.3558
19.6857
19.679
20.3512
20.3825
20.3505
19.6834
19.6762
20.3453
20.3767
20.3446
19.6801
19.6744
20.3381
20.37
20.3395
19.6733
19.6704
20.3304
20.3615
20.3303
19.6722
19.6657
20.3213
20.3522
20.3204
19.6706
19.6583
20.313
20.3429
20.3119
19.6644
19.6513
20.3041
20.3325
20.3026
19.6567
19.6496
20.2911
20.3207
20.2928
19.6471
19.6455
20.2788
20.3078
20.2797
19.6418
19.6371
20.2683
20.2958
20.2676
19.6347
19.6287
20.2576
20.2841
20.2581
19.6237
19.6253
20.2444
20.2704
20.2459
19.6179
19.6232
20.2307
20.256
20.2316
19.6185
19.6196
20.2191
20.2429
20.219
19.619
19.614
20.2104
20.2313
20.2098
19.6157
19.6089
20.2036
20.2208
20.2024
19.612
19.6104
20.1963
20.211
20.1956
19.6138
19.6176
20.1908
20.203
20.1901
19.6205
19.6281
20.1872
20.1967
20.187
19.6286
19.6366
20.1871
20.1928
20.187
19.6368
19.6492
20.1897
20.1915
20.1897
19.6493
19.668
20.1936
20.1919
20.1936
19.6681
19.6889
20.1998
20.1943
20.1998
19.689
19.7129
20.2079
20.1989
20.2079
19.713
19.7398
20.2177
20.2058
20.2177
19.7398
19.7691
20.2281
20.2152
20.2281
19.7692
20.3316
19.9322
20.0016
19.9322
20.3316
20.3917
19.8949
19.9579
19.8949
20.3917
20.2648
19.9786
20.0306
19.9786
20.2648
20.1876
20.0085
20.0779
20.0085
20.1876
20.148
20.0219
20.1106
20.0219
20.148
20.1236
20.0289
20.1322
20.0289
20.1236
20.1076
20.0326
20.1451
20.0326
20.1077
20.097
20.0341
20.1527
20.0341
20.0971
20.0894
20.0337
20.1565
20.0337
20.0893
20.0833
20.0322
20.1577
20.0323
20.0833
20.0781
20.0301
20.1572
20.03
20.0782
20.0727
20.0268
20.1552
20.0268
20.0733
20.0676
20.0229
20.1521
20.0233
20.0686
20.0622
20.0185
20.1481
20.0186
20.0629
20.0564
20.0133
20.1431
20.0134
20.057
20.0505
20.0075
20.1373
20.0079
20.051
20.0441
20.0012
20.1306
20.0012
20.0439
20.0365
19.9942
20.1235
19.9941
20.0366
20.029
19.9875
20.1163
19.9874
20.0298
20.0221
19.9806
20.1087
19.9805
20.0228
20.0144
19.973
20.1007
19.9734
20.0149
20.0073
19.9658
20.0927
19.9659
20.0065
20.0001
19.9594
20.0853
19.9591
19.9992
19.9935
19.9537
20.0786
19.9536
19.9931
19.9881
19.9483
20.0722
19.9485
19.9874
19.9835
19.9439
20.0664
19.944
19.9828
19.9807
19.9415
20.0625
19.9414
19.9799
19.98
19.9414
20.062
19.9411
19.9794
19.9817
19.9435
20.065
19.943
19.9812
19.9855
19.9471
20.0671
19.9467
19.9849
19.9914
19.9529
20.0711
19.9526
19.991
20.0006
19.9612
20.0772
19.9611
20.0005
20.0132
19.9721
20.0854
19.9721
20.0131
20.0284
19.9852
20.0954
19.9852
20.0284
20.0463
20.0001
20.107
20.0001
20.0463
20.0666
20.0166
20.12
20.0166
20.0666
20.0884
20.0345
20.1342
20.0345
20.0884
20.1113
20.0531
20.1495
20.0531
20.1113
20.1363
20.0707
20.1656
20.0707
20.1363
20.4602
19.8714
19.8693
19.8714
20.4602
20.6296
19.7833
19.7374
19.7833
20.6296
20.5072
19.8723
19.8083
19.8723
20.5072
20.4373
19.8979
19.8494
19.8979
20.4372
20.4061
19.9056
19.8743
19.9056
20.4061
20.3877
19.9076
19.8892
19.9076
20.3877
20.3756
19.9069
19.8971
19.9069
20.3758
20.3673
19.9048
19.9008
19.9048
20.3676
20.3597
19.9026
19.902
19.902
20.361
20.3533
19.8995
19.901
19.8985
20.3555
20.3495
19.8944
19.8983
19.8948
20.3495
20.345
19.8892
19.8946
19.8905
20.3436
20.3396
19.8839
19.8898
19.8843
20.3396
20.3357
19.877
19.8841
19.8781
20.3347
20.3303
19.8706
19.8782
19.8715
20.3294
20.3235
19.8646
19.8718
19.8636
20.3253
20.3178
19.8575
19.8652
19.8568
20.3189
20.3132
19.8494
19.8583
19.8499
20.3121
20.3087
19.8412
19.8514
19.8432
20.3053
20.3028
19.8345
19.8454
19.8372
20.2984
20.2948
19.8296
19.8397
19.8298
20.294
20.2879
19.8251
19.8348
19.824
20.2889
20.2845
19.8194
19.8303
19.8192
20.2846
20.2823
19.8148
19.8266
19.8145
20.2826
20.2786
19.8138
19.825
19.8124
20.2803
20.2766
19.8142
19.8254
19.8134
20.2775
20.2769
19.8163
19.8271
19.8158
20.2769
20.2802
19.8195
19.8295
19.8194
20.2792
20.2857
19.8243
19.8352
19.8248
20.284
20.2924
19.8343
19.8463
19.8341
20.2919
20.3028
19.8447
19.8578
19.8445
20.3026
20.3157
19.8571
19.8703
19.857
20.3155
20.3309
19.8714
19.8844
19.8713
20.3307
20.3483
19.887
19.8996
19.887
20.3482
20.3663
19.9046
19.9161
19.9046
20.3663
20.3848
19.9233
19.933
19.9233
20.3848
20.4031
19.9427
19.9499
19.9427
20.4031
20.4219
19.961
19.9656
19.9611
20.422
20.448
19.9705
19.9771
19.9705
20.448
20.4429
19.9053
19.8475
19.9053
20.4429
20.6252
19.8222
19.6958
19.8221
20.6252
20.4962
19.9213
19.7765
19.9213
20.4962
20.4262
19.9497
19.8229
19.9497
20.4262
20.3962
19.9579
19.8477
19.9578
20.3962
20.3788
19.9595
19.8608
19.9595
20.3788
20.3673
19.9581
19.867
19.9581
20.3674
20.3593
19.9553
19.869
19.9553
20.3595
20.3526
19.9517
19.8685
19.9517
20.3531
20.3468
19.9475
19.8662
19.9475
20.3474
20.3419
19.9425
19.8627
19.9426
20.3419
20.3368
19.937
19.8583
19.9373
20.3365
20.3316
19.9312
19.8532
19.9314
20.3314
20.3264
19.925
19.8476
19.9253
20.3259
20.3206
19.9187
19.8419
19.919
20.3203
20.3146
19.9124
19.8359
19.9123
20.3148
20.3087
19.9059
19.8299
19.9058
20.3087
20.303
19.8993
19.824
19.8994
20.3023
20.2976
19.8929
19.8183
19.8932
20.2962
20.292
19.8872
19.8132
19.8876
20.2905
20.2864
19.8823
19.8089
19.8823
20.2858
20.2816
19.8782
19.8054
19.8779
20.2816
20.2784
19.8749
19.8028
19.8747
20.2784
20.2764
19.8728
19.8015
19.8725
20.2765
20.2753
19.8725
19.8018
19.872
20.2757
20.2758
19.874
19.8041
19.8735
20.2761
20.2782
19.8773
19.8084
19.8768
20.2783
20.283
19.8827
19.815
19.8824
20.2826
20.2898
19.8904
19.821
19.8902
20.2894
20.2984
19.8977
19.8295
19.8975
20.2981
20.3093
19.9075
19.8398
19.9073
20.3092
20.3225
19.9191
19.8514
19.919
20.3223
20.3374
19.9321
19.864
19.9321
20.3373
20.3539
19.9461
19.877
19.9461
20.3538
20.3713
19.9607
19.8901
19.9608
20.3713
20.3892
19.9755
19.9026
19.9755
20.3892
20.4067
19.9903
19.9139
19.9904
20.4067
20.4253
20.0032
19.9227
20.0033
20.4254
20.453
20.0047
19.9255
20.0047
20.453
20.4134
19.9315
19.8544
19.9315
20.4134
20.5826
19.8563
19.704
19.8563
20.5826
20.4396
19.9605
19.8047
19.9605
20.4396
20.365
19.9917
19.859
19.9917
20.365
20.3337
20.0015
19.8857
20.0015
20.3337
20.316
20.0041
19.8987
20.0041
20.316
20.3045
20.0034
19.9041
20.0034
20.3045
20.2965
20.001
19.9053
20.001
20.2965
20.2901
19.9976
19.9041
19.9976
20.2902
20.2845
19.9935
19.9013
19.9935
20.2846
20.2794
19.9888
19.8974
19.9888
20.2794
20.2744
19.9837
19.8927
19.9837
20.2742
20.2693
19.9782
19.8875
19.9782
20.2691
20.2641
19.9726
19.8821
19.9726
20.2639
20.2588
19.9667
19.8764
19.9667
20.2585
20.2534
19.9608
19.8706
19.9608
20.2532
20.248
19.9549
19.8649
19.9548
20.2477
20.2428
19.9491
19.8592
19.949
20.2424
20.2379
19.9436
19.8538
19.9435
20.2373
20.2332
19.9386
19.849
19.9384
20.2327
20.2291
19.9341
19.8447
19.934
20.2287
20.2257
19.9304
19.8412
19.9303
20.2256
20.2235
19.9277
19.8387
19.9276
20.2234
20.2224
19.9261
19.8373
19.926
20.2225
20.2226
19.9258
19.8372
19.9257
20.2228
20.2243
19.927
19.8385
19.9268
20.2245
20.2278
19.9296
19.8412
19.9294
20.2278
20.2331
19.9338
19.8454
19.9336
20.233
20.2404
19.9395
19.8507
19.9394
20.2402
20.2495
19.9466
19.8574
19.9464
20.2494
20.2606
19.955
19.8651
19.9549
20.2605
20.2735
19.9644
19.8736
19.9644
20.2735
20.288
19.9746
19.8823
19.9746
20.288
20.304
19.9851
19.8907
19.9851
20.304
20.3212
19.9955
19.8984
19.9956
20.3213
20.3392
20.0056
19.9046
20.0056
20.3393
20.3575
20.0151
19.9088
20.0152
20.3576
20.3782
20.0223
19.9092
20.0223
20.3782
20.4108
20.0172
19.9008
20.0173
20.4108
20.3928
19.9472
19.8674
19.9472
20.3928
20.55
19.876
19.7241
19.876
20.55
20.3957
19.9846
19.8383
19.9846
20.3957
20.3168
20.0183
19.8983
20.0183
20.3167
20.2839
20.0293
19.9275
20.0293
20.2839
20.2657
20.0327
19.9417
20.0327
20.2657
20.2541
20.0326
19.9477
20.0325
20.2541
20.2461
20.0306
19.9492
20.0306
20.2461
20.2398
20.0276
19.9482
20.0276
20.2398
20.2344
20.024
19.9456
20.024
20.2343
20.2294
20.0198
19.9419
20.0197
20.2293
20.2247
20.0152
19.9376
20.0151
20.2245
20.2199
20.0103
19.9329
20.0102
20.2197
20.2151
20.0052
19.9278
20.0051
20.2148
20.2103
20.0001
19.9227
20
20.21
20.2054
19.9948
19.9174
19.9947
20.2052
20.2007
19.9896
19.9121
19.9895
20.2004
20.1962
19.9846
19.907
19.9844
20.1958
20.1919
19.9797
19.902
19.9795
20.1915
20.188
19.9752
19.8975
19.9751
20.1876
20.1846
19.9713
19.8934
19.9711
20.1844
20.1819
19.9679
19.89
19.9678
20.1818
20.1802
19.9654
19.8873
19.9653
20.1801
20.1794
19.9637
19.8855
19.9636
20.1795
20.1799
19.9631
19.8846
19.963
20.1799
20.1816
19.9635
19.8847
19.9634
20.1816
20.1847
19.9651
19.8859
19.965
20.1848
20.1894
19.9678
19.888
19.9677
20.1894
20.1957
19.9716
19.891
19.9715
20.1957
20.2036
19.9764
19.8948
19.9764
20.2036
20.2132
19.9821
19.899
19.982
20.2132
20.2243
19.9883
19.9034
19.9883
20.2243
20.237
19.9949
19.9075
19.9949
20.2371
20.2513
20.0014
19.9108
20.0014
20.2514
20.2671
20.0075
19.9128
20.0075
20.2672
20.2842
20.013
19.9127
20.013
20.2843
20.3024
20.0179
19.9101
20.0179
20.3025
20.3243
20.0204
19.9031
20.0204
20.3244
20.3603
20.0105
19.8864
20.0105
20.3603
20.3789
19.9563
19.8795
19.9563
20.3789
20.528
19.8875
19.7419
19.8875
20.528
20.3662
19.9995
19.8645
19.9995
20.3662
20.2841
20.0349
19.9286
20.0349
20.2841
20.2502
20.0469
19.9599
20.0469
20.2501
20.2316
20.0509
19.9753
20.0509
20.2315
20.2199
20.0513
19.9821
20.0513
20.2199
20.2119
20.0499
19.9842
20.0499
20.2119
20.2058
20.0475
19.9837
20.0474
20.2057
20.2006
20.0443
19.9816
20.0443
20.2005
20.1959
20.0407
19.9786
20.0406
20.1958
20.1915
20.0367
19.9749
20.0366
20.1914
20.1872
20.0325
19.9708
20.0324
20.187
20.1829
20.0282
19.9665
20.0281
20.1827
20.1786
20.0238
19.9621
20.0237
20.1784
20.1744
20.0193
19.9575
20.0192
20.1742
20.1703
20.0148
19.9529
20.0147
20.1701
20.1663
20.0105
19.9484
20.0103
20.1661
20.1626
20.0062
19.944
20.0061
20.1623
20.1592
20.0023
19.9399
20.0021
20.159
20.1562
19.9986
19.936
19.9985
20.156
20.1537
19.9954
19.9326
19.9953
20.1536
20.1519
19.9927
19.9296
19.9926
20.1518
20.1508
19.9906
19.9272
19.9906
20.1508
20.1506
19.9892
19.9253
19.9891
20.1506
20.1514
19.9884
19.924
19.9883
20.1514
20.1532
19.9883
19.9232
19.9883
20.1532
20.1561
19.989
19.9229
19.9889
20.1562
20.1603
19.9902
19.9231
19.9902
20.1603
20.1658
19.9921
19.9234
19.9921
20.1658
20.1726
19.9943
19.9238
19.9943
20.1727
20.1809
19.9968
19.9238
19.9968
20.1809
20.1907
19.9992
19.9231
19.9993
20.1907
20.2021
20.0014
19.9212
20.0015
20.2022
20.2154
20.0031
19.9176
20.0031
20.2155
20.2306
20.0041
19.9117
20.0041
20.2307
20.2477
20.0047
19.9031
20.0047
20.2477
20.2697
20.0032
19.8899
20.0032
20.2697
20.3076
19.9894
19.8669
19.9894
20.3076
20.37
19.9612
19.8879
19.9612
20.37
20.514
19.8939
19.7543
19.8939
20.514
20.3476
20.0083
19.8819
20.0083
20.3475
20.2636
20.0448
19.9488
20.0447
20.2635
20.2289
20.0575
19.9817
20.0575
20.2289
20.2102
20.0621
19.9981
20.062
20.2101
20.1986
20.063
20.0056
20.063
20.1985
20.1908
20.0621
20.0083
20.062
20.1907
20.1849
20.0602
20.0084
20.0601
20.1848
20.1801
20.0576
20.007
20.0576
20.18
20.1759
20.0547
20.0047
20.0546
20.1757
20.172
20.0514
20.0018
20.0513
20.1718
20.1682
20.048
19.9985
20.0479
20.168
20.1646
20.0445
19.995
20.0444
20.1643
20.161
20.0409
19.9914
20.0408
20.1607
20.1574
20.0372
19.9877
20.0371
20.1572
20.154
20.0336
19.9839
20.0334
20.1537
20.1506
20.0299
19.9801
20.0298
20.1504
20.1474
20.0263
19.9764
20.0262
20.1472
20.1443
20.0228
19.9726
20.0227
20.1442
20.1415
20.0194
19.969
20.0193
20.1414
20.139
20.0162
19.9656
20.0161
20.1389
20.1369
20.0132
19.9622
20.0131
20.1368
20.1351
20.0104
19.959
20.0104
20.1351
20.1338
20.0079
19.956
20.0078
20.1338
20.1331
20.0056
19.953
20.0056
20.1331
20.133
20.0035
19.9502
20.0035
20.133
20.1335
20.0016
19.9473
20.0016
20.1336
20.1349
19.9999
19.9442
19.9999
20.1349
20.1371
19.9983
19.9409
19.9983
20.1372
20.1404
19.9966
19.9371
19.9967
20.1404
20.1449
19.9949
19.9325
19.9949
20.1449
20.1508
19.9928
19.9269
19.9928
20.1508
20.1584
19.9903
19.9197
19.9903
20.1585
20.1682
19.9872
19.9106
19.9872
20.1682
20.1804
19.9836
19.8992
19.9836
20.1804
20.1953
19.9799
19.885
19.9799
20.1953
20.2161
19.9745
19.8664
19.9745
20.2161
20.2544
19.9574
19.8385
19.9573
20.2544
20.3649
19.9635
19.8925
19.9635
20.3649
20.5062
19.8971
19.7612
19.8971
20.5062
20.3374
20.0129
19.8917
20.0129
20.3374
20.2524
20.0501
19.9602
20.05
20.2524
20.2175
20.0633
19.9941
20.0632
20.2174
20.1988
20.0683
20.0112
20.0683
20.1987
20.1874
20.0697
20.0193
20.0696
20.1873
20.1799
20.0693
20.0226
20.0692
20.1798
20.1745
20.0679
20.0233
20.0678
20.1743
20.1702
20.066
20.0226
20.0659
20.17
20.1665
20.0637
20.021
20.0636
20.1663
20.1633
20.0612
20.0188
20.0611
20.1631
20.1602
20.0586
20.0164
20.0585
20.16
20.1573
20.056
20.0139
20.0559
20.1571
20.1545
20.0533
20.0112
20.0531
20.1542
20.1517
20.0505
20.0084
20.0504
20.1515
20.149
20.0477
20.0054
20.0475
20.1488
20.1463
20.0448
20.0024
20.0447
20.1461
20.1437
20.0419
19.9994
20.0417
20.1435
20.1411
20.0388
19.9961
20.0387
20.1409
20.1385
20.0357
19.9928
20.0356
20.1383
20.1359
20.0325
19.9893
20.0324
20.1357
20.1333
20.0292
19.9856
20.0291
20.1332
20.1308
20.0257
19.9817
20.0256
20.1307
20.1283
20.022
19.9775
20.0219
20.1282
20.1258
20.018
19.9729
20.018
20.1258
20.1235
20.0137
19.9678
20.0137
20.1235
20.1213
20.0091
19.9621
20.0091
20.1213
20.1193
20.0041
19.9557
20.0041
20.1193
20.1177
19.9987
19.9485
19.9987
20.1177
20.1167
19.9927
19.9403
19.9927
20.1168
20.1166
19.9862
19.9308
19.9862
20.1166
20.1177
19.9791
19.9199
19.9791
20.1177
20.1205
19.9713
19.9072
19.9713
20.1205
20.1256
19.963
19.8924
19.963
20.1257
20.1337
19.9542
19.8753
19.9543
20.1337
20.145
19.9458
19.8557
19.9457
20.145
20.1633
19.9362
19.832
19.9361
20.1633
20.2003
19.9157
19.7996
19.9157
20.2003
20.3629
19.9638
19.8936
19.9638
20.3629
20.5036
19.8979
19.7633
19.8979
20.5036
20.3342
20.0143
19.8948
20.0143
20.3342
20.2491
20.0518
19.964
20.0518
20.249
20.2142
20.0654
19.9984
20.0653
20.2141
20.1957
20.0708
20.0159
20.0707
20.1956
20.1846
20.0725
20.0244
20.0725
20.1845
20.1776
20.0726
20.0282
20.0725
20.1774
20.1726
20.0717
20.0295
20.0716
20.1724
20.1688
20.0704
20.0294
20.0703
20.1686
20.1658
20.0689
20.0285
20.0687
20.1656
20.1633
20.0672
20.0271
20.067
20.1631
20.1611
20.0654
20.0256
20.0653
20.1609
20.1591
20.0637
20.024
20.0635
20.1588
20.1571
20.0619
20.0222
20.0618
20.1569
20.1553
20.0601
20.0203
20.0599
20.1551
20.1535
20.0582
20.0183
20.058
20.1533
20.1517
20.0561
20.0162
20.056
20.1514
20.1497
20.054
20.0139
20.0538
20.1495
20.1476
20.0515
20.0113
20.0514
20.1474
20.1453
20.0488
20.0083
20.0487
20.1452
20.1428
20.0457
20.0049
20.0456
20.1427
20.14
20.0421
20.0011
20.042
20.1398
20.1367
20.038
19.9965
20.0379
20.1366
20.1331
20.0332
19.9912
20.0332
20.133
20.1289
20.0276
19.985
20.0276
20.1289
20.1243
20.0212
19.9778
20.0212
20.1243
20.1193
20.0138
19.9693
20.0138
20.1193
20.1138
20.0053
19.9596
20.0053
20.1138
20.108
19.9959
19.9484
19.9959
20.108
20.1021
19.9853
19.9355
19.9853
20.1021
20.0966
19.9735
19.9208
19.9735
20.0966
20.0919
19.9607
19.9042
19.9607
20.0919
20.0887
19.9469
19.8854
19.9469
20.0887
20.0877
19.9325
19.8644
19.9325
20.0878
20.09
19.9177
19.8411
19.9177
20.09
20.0961
19.9036
19.8155
19.9036
20.0961
20.11
19.889
19.7866
19.889
20.11
20.1438
19.8647
19.7496
19.8647
20.1439
20.3638
19.9625
19.8915
19.9625
20.3638
20.5057
19.8966
19.7607
19.8966
20.5056
20.3374
20.0129
19.8917
20.0128
20.3374
20.2529
20.0504
19.9606
20.0504
20.2528
20.2184
20.0641
19.995
20.0641
20.2183
20.2003
20.0698
20.0126
20.0697
20.2002
20.1896
20.0718
20.0214
20.0717
20.1894
20.1829
20.0722
20.0255
20.0721
20.1827
20.1785
20.0719
20.0273
20.0717
20.1782
20.1753
20.0712
20.0277
20.071
20.1751
20.1731
20.0703
20.0275
20.0701
20.1728
20.1714
20.0693
20.0269
20.0692
20.1711
20.1701
20.0684
20.0262
20.0683
20.1698
20.1689
20.0676
20.0255
20.0675
20.1687
20.168
20.0668
20.0246
20.0666
20.1678
20.1672
20.066
20.0238
20.0658
20.167
20.1665
20.065
20.0227
20.0649
20.1662
20.1657
20.064
20.0215
20.0638
20.1654
20.1646
20.0627
20.02
20.0625
20.1643
20.1633
20.061
20.0183
20.0608
20.163
20.1616
20.0588
20.0159
20.0587
20.1613
20.1594
20.0561
20.0129
20.056
20.1591
20.1565
20.0526
20.0091
20.0525
20.1563
20.1529
20.0482
20.0043
20.0481
20.1528
20.1484
20.0426
19.9983
20.0425
20.1483
20.1429
20.0358
19.9908
20.0357
20.1428
20.1363
20.0274
19.9817
20.0274
20.1362
20.1285
20.0174
19.9707
20.0173
20.1284
20.1194
20.0056
19.9576
20.0056
20.1194
20.1092
19.992
19.9424
19.992
20.1091
20.098
19.9765
19.9248
19.9765
20.098
20.0864
19.959
19.9045
19.959
20.0864
20.0747
19.9398
19.8816
19.9398
20.0747
20.064
19.919
19.856
19.919
20.064
20.0552
19.8971
19.8277
19.8971
20.0552
20.0494
19.8749
19.7971
19.8749
20.0495
20.0481
19.8536
19.7646
19.8536
20.0481
20.0552
19.8327
19.7293
19.8327
20.0553
20.0838
19.8035
19.6874
19.8035
20.0838
20.368
19.9593
19.886
19.9593
20.368
20.5129
19.893
19.7535
19.893
20.5129
20.3476
20.0082
19.8819
20.0082
20.3476
20.2644
20.0455
19.9495
20.0454
20.2643
20.2306
20.0591
19.9833
20.059
20.2305
20.213
20.0648
20.0007
20.0647
20.2128
20.2027
20.067
20.0096
20.0669
20.2025
20.1965
20.0677
20.0139
20.0676
20.1962
20.1926
20.0677
20.016
20.0676
20.1923
20.1901
20.0675
20.0169
20.0673
20.1898
20.1886
20.0672
20.0172
20.0671
20.1883
20.1877
20.067
20.0173
20.0668
20.1874
20.1873
20.0669
20.0174
20.0668
20.187
20.1872
20.067
20.0175
20.0669
20.187
20.1874
20.0672
20.0177
20.067
20.1871
20.1878
20.0674
20.0178
20.0672
20.1875
20.1882
20.0676
20.0178
20.0674
20.1878
20.1885
20.0676
20.0176
20.0674
20.1882
20.1886
20.0673
20.0171
20.0671
20.1883
20.1883
20.0666
20.0164
20.0664
20.188
20.1875
20.0654
20.015
20.0652
20.1872
20.1861
20.0634
20.0128
20.0632
20.1858
20.1837
20.0604
20.0094
20.0602
20.1834
20.1803
20.0561
20.0048
20.056
20.18
20.1755
20.0504
19.9986
20.0502
20.1753
20.1692
20.0428
19.9905
20.0427
20.169
20.1611
20.0331
19.9801
20.033
20.1609
20.151
20.0211
19.9672
20.021
20.1508
20.1387
20.0064
19.9513
20.0063
20.1386
20.1242
19.9887
19.9323
19.9887
20.1241
20.1076
19.9682
19.9098
19.9681
20.1075
20.089
19.9446
19.8836
19.9445
20.089
20.0692
19.918
19.8538
19.918
20.0692
20.0491
19.8889
19.8202
19.8889
20.0491
20.0299
19.8579
19.7832
19.8579
20.0299
20.0132
19.826
19.7435
19.826
20.0132
20.0008
19.795
19.7019
19.795
20.0009
19.9977
19.7654
19.6585
19.7655
19.9978
20.018
19.7295
19.6102
19.7295
20.018
20.3762
19.9537
19.877
19.9537
20.3762
20.5265
19.8862
19.7409
19.8862
20.5265
20.3662
19.9994
19.8645
19.9994
20.3661
20.2852
20.0358
19.9295
20.0358
20.2851
20.2524
20.0491
19.9621
20.049
20.2523
20.2353
20.0546
19.9789
20.0545
20.2351
20.2255
20.0568
19.9875
20.0567
20.2252
20.2197
20.0576
19.9919
20.0574
20.2194
20.2163
20.0579
19.9941
20.0577
20.216
20.2145
20.0581
19.9954
20.0579
20.2141
20.2137
20.0583
19.9962
20.0581
20.2133
20.2137
20.0587
19.9969
20.0585
20.2134
20.2142
20.0594
19.9977
20.0592
20.2139
20.2152
20.0604
19.9987
20.0602
20.2149
20.2165
20.0615
19.9998
20.0613
20.2162
20.2181
20.0627
20.001
20.0626
20.2177
20.2197
20.064
20.0021
20.0638
20.2193
20.2214
20.0653
20.0032
20.065
20.2209
20.2229
20.0662
20.0039
20.066
20.2224
20.224
20.0668
20.0043
20.0665
20.2235
20.2245
20.0668
20.0042
20.0666
20.224
20.2243
20.066
20.0032
20.0657
20.2238
20.2231
20.0641
20.001
20.0638
20.2226
20.2205
20.0607
19.9972
20.0604
20.2201
20.2163
20.0555
19.9917
20.0553
20.216
20.2101
20.0481
19.9838
20.0479
20.2098
20.2014
20.0381
19.9731
20.0379
20.2012
20.19
20.0249
19.9592
20.0248
20.1898
20.1753
20.0081
19.9414
20.008
20.1752
20.1571
19.9872
19.9193
19.9872
20.157
20.1352
19.9619
19.8923
19.9619
20.1351
20.1096
19.9319
19.8602
19.9319
20.1095
20.0804
19.8972
19.8226
19.8972
20.0804
20.0487
19.8582
19.7797
19.8581
20.0486
20.0157
19.8154
19.7318
19.8154
20.0157
19.9835
19.7705
19.6799
19.7705
19.9835
19.9547
19.7259
19.6257
19.7259
19.9547
19.9355
19.6832
19.5703
19.6832
19.9355
19.9417
19.6365
19.5123
19.6365
19.9418
20.3897
19.9445
19.8648
19.9444
20.3897
20.5482
19.8747
19.7229
19.8747
20.5482
20.3956
19.9845
19.8383
19.9844
20.3955
20.3178
20.0193
19.8993
20.0192
20.3177
20.2863
20.0317
19.9299
20.0316
20.2861
20.2698
20.0368
19.9458
20.0367
20.2696
20.2603
20.0388
19.954
20.0387
20.26
20.2549
20.0396
19.9582
20.0394
20.2546
20.252
20.04
19.9606
20.0398
20.2516
20.2507
20.0404
19.9621
20.0402
20.2502
20.2506
20.041
19.9633
20.0408
20.2501
20.2513
20.0419
19.9646
20.0418
20.2509
20.2527
20.0433
19.9662
20.0432
20.2524
20.2546
20.045
19.9678
20.0449
20.2543
20.257
20.047
19.9698
20.0469
20.2567
20.2598
20.0493
19.9721
20.0491
20.2594
20.2628
20.0517
19.9744
20.0515
20.2623
20.2658
20.0542
19.9768
20.054
20.2652
20.2688
20.0566
19.9792
20.0563
20.2681
20.2716
20.0587
19.981
20.0583
20.2708
20.2739
20.0603
19.9825
20.0599
20.2731
20.2754
20.0612
19.9833
20.0608
20.2747
20.276
20.061
19.9828
20.0606
20.2754
20.2752
20.0593
19.9809
20.059
20.2747
20.2727
20.0557
19.977
20.0554
20.2722
20.2678
20.0497
19.9707
20.0494
20.2675
20.2601
20.0406
19.9611
20.0404
20.2598
20.2489
20.0278
19.9477
20.0276
20.2487
20.2335
20.0105
19.9295
20.0103
20.2332
20.2131
19.9878
19.9058
19.9877
20.2129
20.187
19.9589
19.8755
19.9588
20.1868
20.1546
19.9231
19.8379
19.923
20.1544
20.1155
19.8799
19.7925
19.8799
20.1154
20.0701
19.8292
19.7386
19.8292
20.07
20.0192
19.7715
19.6767
19.7715
20.0192
19.965
19.7085
19.6079
19.7085
19.9649
19.9109
19.6434
19.5346
19.6434
19.9108
19.8648
19.5792
19.4594
19.5792
19.8648
19.8459
19.5134
19.384
19.5134
19.8459
20.4102
19.929
19.8521
19.929
20.4102
20.5806
19.855
19.703
19.855
20.5805
20.4393
19.9603
19.8046
19.9603
20.4392
20.3657
19.9926
19.8599
19.9925
20.3656
20.3356
20.0037
19.8879
20.0036
20.3354
20.3196
20.008
19.9027
20.0079
20.3193
20.3103
20.0096
19.9105
20.0095
20.3099
20.3051
20.0101
19.9147
20.01
20.3046
20.3024
20.0104
19.9173
20.0103
20.3018
20.3014
20.0109
19.9191
20.0109
20.3007
20.3017
20.0118
19.9208
20.0117
20.3011
20.3029
20.0131
19.9225
20.013
20.3025
20.3049
20.0148
19.9245
20.0147
20.3047
20.3076
20.0171
19.9272
20.0171
20.3074
20.3109
20.0199
19.9302
20.0198
20.3107
20.3147
20.0231
19.9336
20.023
20.3143
20.3188
20.0266
19.9373
20.0264
20.3183
20.3233
20.0304
19.9413
20.0302
20.3225
20.3278
20.0343
19.9456
20.034
20.3268
20.3322
20.0381
19.9494
20.0377
20.331
20.3364
20.0416
19.953
20.0412
20.3353
20.3402
20.0445
19.9559
20.0441
20.3391
20.3432
20.0467
19.9579
20.0463
20.3422
20.3451
20.0476
19.9587
20.0472
20.3443
20.3454
20.0467
19.9578
20.0464
20.3447
20.3435
20.0436
19.9545
20.0433
20.3429
20.3386
20.0373
19.948
20.037
20.3382
20.3299
20.0269
19.9372
20.0267
20.3296
20.3162
20.0113
19.9211
20.0112
20.3159
20.2964
19.9892
19.8981
19.9891
20.2961
20.2689
19.9591
19.8668
19.959
20.2686
20.2319
19.9193
19.8255
19.9192
20.2317
20.1839
19.8683
19.7725
19.8683
20.1837
20.1235
19.8049
19.7066
19.8049
20.1234
20.0502
19.7283
19.6267
19.7283
20.0501
19.9648
19.6393
19.533
19.6393
19.9647
19.8703
19.5412
19.428
19.5412
19.8702
19.7761
19.4384
19.3159
19.4384
19.7761
19.7055
19.3325
19.202
19.3325
19.7055
20.4399
19.9035
19.8461
19.9035
20.4399
20.623
19.8211
19.6951
19.821
20.6229
20.4955
19.9209
19.7762
19.9209
20.4954
20.4262
19.9501
19.8233
19.95
20.426
20.397
19.9594
19.8493
19.9593
20.3968
20.381
19.9625
19.8641
19.9625
20.3806
20.3715
19.9632
19.8724
19.9633
20.371
20.3661
19.9633
19.8774
19.9634
20.3654
20.3632
19.9634
19.8808
19.9637
20.3623
20.3621
19.9639
19.8835
19.9643
20.3609
20.3625
19.9648
19.8859
19.9652
20.3612
20.3639
19.9663
19.8883
19.9664
20.3633
20.366
19.9685
19.8912
19.9684
20.3661
20.3692
19.9711
19.8946
19.9711
20.3694
20.3732
19.9743
19.8985
19.9744
20.3733
20.3778
19.9782
19.903
19.9783
20.3776
20.3831
19.9825
19.9079
19.9827
20.3824
20.3887
19.9875
19.9133
19.9876
20.3876
20.3947
19.9928
19.9192
19.993
20.3929
20.4008
19.9984
19.9256
19.9987
20.3985
20.4071
20.0041
19.9318
20.0042
20.405
20.4133
20.0097
19.938
20.0096
20.4115
20.4193
20.0148
19.9438
20.0147
20.4176
20.4247
20.0191
19.9486
20.019
20.4231
20.429
20.0222
19.9521
20.0222
20.4277
20.4316
20.0236
19.9537
20.0233
20.4308
20.4319
20.0222
19.9523
20.0218
20.4315
20.4288
20.017
19.9471
20.0167
20.4285
20.4209
20.0064
19.9364
20.0064
20.4204
20.4058
19.9888
19.9183
19.9889
20.4054
20.3829
19.962
19.8903
19.9619
20.3827
20.3488
19.9228
19.8496
19.9229
20.3487
20.2985
19.8682
19.7927
19.8683
20.2983
20.2279
19.7947
19.7163
19.7947
20.2277
20.1328
19.6991
19.6169
19.6991
20.1327
20.0087
19.5781
19.4912
19.5781
20.0086
19.8534
19.4307
19.3367
19.4307
19.8533
19.6723
19.2591
19.1555
19.2591
19.6722
19.4886
19.0658
18.9541
19.0658
19.4886
20.458
19.8707
19.8689
19.8707
20.458
20.6277
19.7823
19.7366
19.7823
20.6276
20.5061
19.8713
19.8072
19.8713
20.506
20.4359
19.8971
19.8485
19.8971
20.4358
20.4048
19.9054
19.8739
19.9053
20.4047
20.387
19.9083
19.8898
19.9085
20.3865
20.3761
19.909
19.8993
19.9095
20.3753
20.3698
19.9091
19.9053
19.9098
20.3687
20.3656
19.9098
19.9098
19.9105
20.3646
20.3639
19.9104
19.9134
19.912
20.3617
20.3643
19.9113
19.9163
19.9134
20.3612
20.3652
19.913
19.9188
19.9137
20.3643
20.3667
19.9157
19.9216
19.9147
20.3682
20.3704
19.9182
19.925
19.9175
20.3718
20.3749
19.9213
19.9289
19.921
20.3759
20.3803
19.9253
19.9336
19.9251
20.3811
20.3875
19.9294
19.9389
19.93
20.3867
20.3945
19.9349
19.945
19.9358
20.3928
20.4019
19.9414
19.9522
19.9432
20.3983
20.41
19.9486
19.9601
19.9512
20.4047
20.4186
19.9562
19.968
19.958
20.4144
20.4279
19.9643
19.9764
19.9656
20.4243
20.4377
19.9726
19.9853
19.9739
20.4343
20.448
19.981
19.9942
19.9823
20.4446
20.4581
19.9892
20.003
19.9907
20.4547
20.4672
19.9971
20.0109
19.9973
20.4659
20.4759
20.0031
20.0168
20.0023
20.4762
20.4833
20.0063
20.0201
20.0057
20.4835
20.4882
20.0047
20.0188
20.0052
20.4871
20.4882
19.9966
20.0102
19.9974
20.4869
20.4793
19.9789
19.991
19.9786
20.4794
20.4587
19.9454
19.956
19.9452
20.4588
20.4193
19.8905
19.8992
19.891
20.4187
20.3506
19.807
19.8124
19.8073
20.3502
20.2385
19.6838
19.6847
19.684
20.2383
20.0688
19.5088
19.5023
19.5089
20.0687
19.8241
19.2688
19.2515
19.2688
19.824
19.4873
18.9564
18.9242
18.9564
19.4873
19.0389
18.5485
18.5025
18.5485
19.0389
20.3315
19.9327
20.0024
19.9327
20.3315
20.3911
19.8936
19.9567
19.8936
20.3911
20.2635
19.9761
20.0277
19.9761
20.2634
20.185
20.0053
20.0741
20.0053
20.185
20.1443
20.018
20.1061
20.0181
20.1444
20.1193
20.0249
20.1275
20.025
20.1195
20.1031
20.0288
20.1405
20.0289
20.1035
20.093
20.0312
20.1489
20.0313
20.0933
20.0865
20.0326
20.1544
20.0328
20.0871
20.0824
20.0337
20.1582
20.0341
20.0834
20.0807
20.0354
20.1613
20.0356
20.0817
20.0803
20.0373
20.1643
20.0375
20.0808
20.081
20.0396
20.1672
20.0399
20.081
20.0825
20.0427
20.1704
20.0428
20.0826
20.0846
20.0463
20.1742
20.0464
20.085
20.0884
20.0512
20.1793
20.0512
20.0886
20.0932
20.0571
20.1854
20.0569
20.0931
20.0984
20.0635
20.1921
20.0636
20.0989
20.1048
20.0707
20.1996
20.0711
20.1057
20.1127
20.0793
20.2082
20.0795
20.1135
20.1217
20.0891
20.2181
20.0894
20.1223
20.1319
20.0999
20.229
20.1001
20.132
20.1432
20.1119
20.2413
20.1121
20.1432
20.1558
20.1251
20.2545
20.1253
20.1561
20.1699
20.1394
20.2685
20.1395
20.1701
20.185
20.1543
20.2829
20.1544
20.1847
20.2008
20.1697
20.2977
20.1699
20.2004
20.2173
20.1854
20.3127
20.1856
20.2171
20.2336
20.2006
20.3266
20.2004
20.2334
20.2488
20.2134
20.3394
20.2132
20.2489
20.2617
20.2225
20.3481
20.2223
20.2613
20.2681
20.2238
20.348
20.2236
20.2676
20.2647
20.2115
20.3328
20.2114
20.2651
20.244
20.1776
20.2944
20.1776
20.2443
20.1796
20.1084
20.2184
20.1085
20.1797
20.0736
19.9868
20.0858
19.9869
20.0736
19.9104
19.8039
19.8841
19.8039
19.9104
19.5864
19.4782
19.5373
19.4782
19.5864
18.5837
18.4509
18.5016
18.4509
18.5837
19.9279
20.174
20.1288
20.174
19.9279
19.9077
20.2139
20.1678
20.2139
19.9076
19.8609
20.2757
20.2303
20.2757
19.8609
19.7966
20.3121
20.2822
20.3122
19.7966
19.7528
20.3315
20.3197
20.3316
19.753
19.7258
20.342
20.3449
20.3421
19.7266
19.7085
20.3475
20.3611
20.3476
19.7101
19.696
20.3507
20.3712
20.3504
19.6996
19.6902
20.3513
20.3768
20.3515
19.6928
19.6875
20.3507
20.3795
20.3509
19.6906
19.683
20.3516
20.3816
20.3509
19.688
19.683
20.3515
20.3831
20.3516
19.6851
19.6854
20.3512
20.3841
20.3521
19.684
19.6877
20.3519
20.3849
20.3523
19.6865
19.6926
20.3523
20.3858
20.3527
19.6917
19.6939
20.3552
20.3881
20.355
19.6964
19.6953
20.3596
20.3914
20.358
19.7026
19.7044
20.3627
20.3949
20.3628
19.7076
19.7157
20.3667
20.3989
20.3672
19.7171
19.7259
20.3729
20.4045
20.3729
19.728
19.7372
20.3809
20.4122
20.3816
19.7378
19.75
20.3905
20.4213
20.3906
19.7521
19.7645
20.4019
20.4321
20.4018
19.7664
19.7807
20.4154
20.445
20.4157
19.7806
19.7979
20.4314
20.46
20.4313
19.7977
19.8201
20.4489
20.4774
20.4491
19.8187
19.8459
20.4687
20.4975
20.47
19.8413
19.8729
20.4916
20.5197
20.4928
19.8687
19.9013
20.518
20.5444
20.5174
19.9012
19.9315
20.548
20.5718
20.547
19.9331
19.9659
20.579
20.6006
20.5785
19.9663
20.0018
20.6089
20.6286
20.6085
20.0026
20.0344
20.635
20.6518
20.6349
20.0356
20.0568
20.6504
20.6622
20.6505
20.0573
20.0576
20.6392
20.6427
20.6393
20.0576
20.0033
20.5696
20.5595
20.5697
20.0033
19.8276
20.3649
20.3326
20.365
19.8276
19.4375
19.8966
19.8222
19.8966
19.4375
18.338
18.6221
18.5363
18.6222
18.338
19.8744
20.2775
20.2709
20.2775
19.8745
20.2245
20.1212
20.2225
20.1212
20.2245
20.5236
19.9792