/*--------------------------------*- C++ -*----------------------------------*\
  =========                 |
  \\      /  F ield         | OpenFOAM: The Open Source CFD Toolbox
   \\    /   O peration     | Website:  https://openfoam.org
    \\  /    A nd           | Version:  9
     \\/     M anipulation  |
\*---------------------------------------------------------------------------*/
FoamFile
{
    format      ascii;
    class       surfaceScalarField;
    location    "5";
    object      phi;
}
// * * * * * * * * * * * * * * * * * * * * * * * * * * * * * * * * * * * * * //

dimensions      [0 3 -1 0 0 0 0];

internalField   nonuniform List<scalar> 
12376
(
-9.10484e-05
0.00129619
0.000364467
1.653e-05
0.000588851
-0.000259404
-1.65294e-05
0.0005751
-2.43982e-05
9.10488e-05
0.000588844
-0.000259403
0.00129618
0.000364468
-0.000107399
0.00113671
0.000266882
1.60566e-05
0.000681758
-0.000216362
-1.60553e-05
0.000614749
-7.53563e-06
0.0001074
0.000681752
-0.000216362
0.0011367
0.000266882
-0.000144527
0.00102636
0.000254879
1.55631e-05
0.000744882
-0.000223214
-1.55616e-05
0.000667708
-2.1834e-05
0.000144528
0.000744878
-0.000223215
0.00102635
0.000254877
-0.000175074
0.000953923
0.000247511
9.97285e-06
0.000781479
-0.000221644
-9.97208e-06
0.000717589
-2.99364e-05
0.000175075
0.000781477
-0.000221646
0.000953918
0.000247508
-0.000191872
0.000909758
0.000236038
3.80147e-06
0.000803028
-0.000217222
-3.80462e-06
0.000756653
-3.14572e-05
0.000191872
0.000803027
-0.000217226
0.000909756
0.000236034
-0.000199618
0.000883777
0.000225599
-1.01703e-06
0.00081718
-0.000212753
1.00462e-06
0.000785574
-3.09426e-05
0.000199605
0.000817184
-0.000212758
0.000883747
0.000225614
-0.000202522
0.000869578
0.000216721
-4.32034e-06
0.000827593
-0.000208615
4.31257e-06
0.000806854
-2.99131e-05
0.000202423
0.000827695
-0.000208622
0.000869379
0.000216791
-0.000201819
0.000862463
0.000208934
-6.28237e-06
0.000836565
-0.000204509
6.39002e-06
0.000823242
-2.90609e-05
0.000201933
0.000836711
-0.00020456
0.000862289
0.000209023
-0.000199269
0.000860496
0.000201237
-7.63282e-06
0.000844974
-0.000200046
7.62968e-06
0.000836507
-2.85274e-05
0.000199825
0.000845008
-0.000200493
0.000860421
0.000201693
-0.000195582
0.000861945
0.000194133
-8.38487e-06
0.000853536
-0.00019576
8.20845e-06
0.000848228
-2.83149e-05
0.00019636
0.000853406
-0.000196549
0.000861824
0.000194957
-0.000191806
0.000865448
0.000188303
-8.41824e-06
0.000862605
-0.000192456
8.71531e-06
0.000859449
-2.83549e-05
0.000192183
0.000862308
-0.00019237
0.000865795
0.000188212
-0.000188133
0.000871412
0.000182169
-8.5927e-06
0.000872044
-0.000188979
8.84367e-06
0.000870496
-2.84832e-05
0.000187546
0.000871901
-0.000188296
0.000871681
0.000181659
-0.00018353
0.000878838
0.000176104
-8.74297e-06
0.000882404
-0.000185148
8.50213e-06
0.000881921
-2.867e-05
0.000182981
0.000882426
-0.000185004
0.000878473
0.000176188
-0.000179718
0.000887606
0.00017095
-8.46162e-06
0.000893329
-0.000182181
8.6439e-06
0.000893715
-2.89e-05
0.000179388
0.00089335
-0.000181668
0.000887426
0.000170435
-0.000175403
0.000897583
0.000165425
-8.31807e-06
0.000904771
-0.000178527
8.49881e-06
0.000905903
-2.90043e-05
0.000174891
0.000904986
-0.000178028
0.000897385
0.000164931
-0.000170298
0.000907918
0.000159963
-8.2641e-06
0.000917158
-0.000174421
7.91248e-06
0.000918769
-2.90432e-05
0.000170583
0.000917389
-0.000175074
0.000907401
0.000160568
-0.000165577
0.000918226
0.000155269
-7.88883e-06
0.000930153
-0.000170684
7.92855e-06
0.000931794
-2.88421e-05
0.000166665
0.000929852
-0.000171199
0.000918668
0.000155397
-0.000162648
0.000929923
0.000150951
-7.70785e-06
0.000942413
-0.0001672
7.93156e-06
0.000944531
-2.83766e-05
0.000162843
0.000941956
-0.000167016
0.000930995
0.000150516
-0.000158933
0.000941388
0.000147467
-7.28484e-06
0.000954307
-0.000163542
7.54431e-06
0.000957327
-2.76253e-05
0.000157647
0.0009544
-0.000162546
0.000942186
0.000146457
-0.00015365
0.00095091
0.000144128
-6.78004e-06
0.000966254
-0.000158817
7.14311e-06
0.000969754
-2.63498e-05
0.000152221
0.000966696
-0.000157374
0.000951739
0.000142668
-0.000149513
0.000960293
0.00014013
-6.91882e-06
0.000976814
-0.000153154
6.52507e-06
0.000980972
-2.46618e-05
0.000148564
0.000977658
-0.000153
0.000960082
0.000140221
-0.000144332
0.000967403
0.000137223
-6.63525e-06
0.000986269
-0.000147152
6.44099e-06
0.000990365
-2.24702e-05
0.000145371
0.000986422
-0.000147694
0.000967831
0.000137621
-0.000140868
0.000972537
0.000135733
-6.16787e-06
0.000993223
-0.000141654
6.3227e-06
0.000997581
-1.97065e-05
0.00014124
0.000993087
-0.000141583
0.000973373
0.000135698
-0.000137435
0.000975026
0.000134946
-5.81052e-06
0.000997281
-0.000135684
5.70728e-06
0.00100253
-1.64672e-05
0.000136944
0.000997434
-0.000135584
0.000975055
0.000135262
-0.000132497
0.00097343
0.000134093
-5.60528e-06
0.000998506
-0.000128118
5.26669e-06
0.00100431
-1.26481e-05
0.0001329
0.000998411
-0.00012861
0.000973084
0.00013487
-0.000128732
0.000968324
0.000133838
-5.35865e-06
0.000995434
-0.000120302
5.15143e-06
0.00100212
-8.32588e-06
0.000128683
0.000995387
-0.000120508
0.000967298
0.000134469
-0.000124468
0.000958185
0.000134605
-4.91458e-06
0.000987849
-0.000111969
4.93615e-06
0.000995833
-3.56321e-06
0.000124867
0.000987578
-0.000112122
0.00095727
0.000134895
-0.000120344
0.00094208
0.000136449
-4.24352e-06
0.000975189
-0.00010344
4.3662e-06
0.000984863
2.3602e-06
0.000120468
0.000974893
-0.000103417
0.000941359
0.00013638
-0.000116057
0.000919055
0.000139082
-3.40894e-06
0.000957182
-9.46418e-05
3.64992e-06
0.000968164
9.64009e-06
0.000115769
0.000957134
-9.43607e-05
0.000918467
0.000138661
-0.000111762
0.000889232
0.000141584
-2.86117e-06
0.000933262
-8.49803e-05
2.99506e-06
0.000945226
1.70811e-05
0.000112033
0.000933175
-8.50788e-05
0.000888961
0.000141539
-0.000108537
0.000852876
0.000144893
-2.32256e-06
0.000902612
-7.55637e-05
2.44933e-06
0.000915955
2.44996e-05
0.000108914
0.000902367
-7.56569e-05
0.000853038
0.000144837
-0.000105127
0.000809155
0.000148848
-1.77943e-06
0.00086503
-6.57654e-05
1.80009e-06
0.000880389
3.19867e-05
0.000105012
0.000864951
-6.57951e-05
0.000809201
0.000148848
-0.000100805
0.000756682
0.000153278
-1.05946e-06
0.00082107
-5.57855e-05
1.06398e-06
0.000838589
3.96765e-05
0.000100773
0.000821024
-5.57817e-05
0.000756734
0.000153241
-9.70205e-05
0.000696021
0.000157681
-3.31633e-07
0.000770316
-4.59342e-05
3.35549e-07
0.000790433
4.7489e-05
9.69983e-05
0.000770278
-4.59169e-05
0.00069607
0.000157662
-9.31204e-05
0.000627474
0.000161668
2.99551e-07
0.000712866
-3.59705e-05
-2.95277e-07
0.000735731
5.52973e-05
9.30972e-05
0.000712838
-3.59524e-05
0.000627494
0.000161674
-8.87586e-05
0.000550881
0.000165352
9.44036e-07
0.00064954
-2.63765e-05
-9.41926e-07
0.000674673
6.29433e-05
8.87383e-05
0.000649524
-2.63664e-05
0.00055087
0.000165362
-8.43537e-05
0.000466912
0.000168323
1.53369e-06
0.00058111
-1.74573e-05
-1.53509e-06
0.000607415
7.03279e-05
8.43405e-05
0.000581103
-1.74539e-05
0.000466887
0.000168324
-7.98857e-05
0.00037709
0.000169708
1.97055e-06
0.000508557
-9.30262e-06
-1.97451e-06
0.00053373
7.76301e-05
7.98782e-05
0.000508553
-9.3027e-06
0.000377062
0.000169703
-7.51767e-05
0.000167179
0.000285088
2.09595e-06
-2.04608e-07
0.000431489
-2.10104e-06
8.52773e-05
0.00045265
7.51724e-05
-2.07192e-07
0.000431487
0.000167171
0.000285064
0.000107169
0.00114392
0.000306069
-1.75337e-05
0.00072075
-0.000186616
1.75341e-05
0.00075355
-7.47844e-05
-0.000107168
0.000720746
-0.000186615
0.00114392
0.00030607
0.000119042
0.00102409
0.000267672
-1.4268e-05
0.000811236
-0.000173538
1.42689e-05
0.000781622
-6.41436e-05
-0.000119041
0.000811233
-0.000173538
0.00102408
0.000267672
6.63815e-05
0.000960404
0.000252184
-1.13368e-05
0.000843063
-0.000177322
1.1338e-05
0.000810162
-7.30483e-05
-6.63808e-05
0.00084306
-0.000177324
0.000960399
0.000252183
4.00038e-05
0.000928565
0.000239346
-1.4537e-05
0.000855471
-0.000179511
1.4538e-05
0.000831304
-8.01535e-05
-4.00035e-05
0.000855469
-0.000179514
0.00092856
0.000239343
2.72338e-05
0.000909893
0.000227476
-1.79684e-05
0.000862668
-0.000179217
1.79682e-05
0.000846518
-8.26078e-05
-2.72349e-05
0.000862666
-0.00017922
0.000909887
0.000227473
1.9801e-05
0.000899216
0.000216476
-2.04716e-05
0.000868079
-0.000177892
2.04695e-05
0.000857793
-8.31584e-05
-1.98075e-05
0.000868083
-0.000177898
0.000899205
0.000216488
1.52136e-05
0.000893977
0.000206746
-2.22466e-05
0.000873123
-0.000176199
2.22419e-05
0.000866557
-8.31655e-05
-1.52327e-05
0.000873143
-0.000176207
0.000893982
0.000206782
1.23997e-05
0.00089251
0.000198001
-2.30952e-05
0.000878396
-0.000174287
2.31039e-05
0.00087424
-8.29438e-05
-1.24194e-05
0.000878416
-0.000174309
0.000892538
0.000198047
1.06713e-05
0.000893752
0.000189324
-2.34075e-05
0.000884154
-0.000171726
2.3414e-05
0.000881554
-8.26624e-05
-1.06642e-05
0.000884159
-0.000172158
0.000893768
0.000189799
9.53481e-06
0.000897056
0.000181294
-2.33656e-05
0.000890554
-0.000169259
2.33624e-05
0.000888969
-8.24583e-05
-9.52236e-06
0.000890544
-0.000170049
0.000897042
0.000182161
8.71579e-06
0.000901981
0.000174661
-2.30998e-05
0.000897689
-0.000167775
2.31075e-05
0.00089676
-8.23537e-05
-8.75903e-06
0.000897641
-0.000167601
0.000901927
0.000174568
8.12479e-06
0.000908139
0.000167886
-2.27531e-05
0.000905486
-0.000165899
2.27188e-05
0.000905026
-8.22211e-05
-8.22447e-06
0.000905449
-0.000165161
0.000908105
0.000167257
7.70256e-06
0.000915376
0.000161165
-2.23112e-05
0.000913987
-0.000163635
2.22407e-05
0.000913848
-8.20436e-05
-7.79447e-06
0.000913993
-0.000163512
0.000915372
0.000161127
7.33008e-06
0.000923373
0.000155623
-2.18163e-05
0.000923056
-0.000162104
2.17806e-05
0.000923143
-8.17916e-05
-7.42198e-06
0.00092306
-0.000161532
0.000923369
0.000155016
7.04489e-06
0.000931991
0.000149763
-2.12821e-05
0.00093254
-0.000159684
2.12511e-05
0.000932808
-8.12027e-05
-7.13554e-06
0.000932552
-0.000159134
0.000932064
0.0001491
6.84804e-06
0.000941054
0.000144051
-2.07316e-05
0.000942338
-0.000156639
2.0687e-05
0.000942731
-8.03855e-05
-6.8598e-06
0.000942373
-0.000157349
0.000941109
0.000144663
6.65676e-06
0.000950278
0.000139389
-2.01636e-05
0.000952189
-0.000153715
2.01662e-05
0.000952636
-7.90767e-05
-6.62687e-06
0.000952157
-0.00015419
0.000950203
0.000139677
6.3865e-06
0.000959144
0.000135698
-1.96274e-05
0.000961666
-0.000150662
1.96332e-05
0.00096222
-7.72215e-05
-6.41548e-06
0.000961614
-0.000150425
0.000959038
0.000135265
6.12407e-06
0.000967327
0.00013316
-1.90769e-05
0.000970591
-0.000147267
1.90685e-05
0.000971283
-7.48337e-05
-6.24348e-06
0.000970617
-0.000146237
0.000967321
0.000131931
5.95622e-06
0.000974679
0.000130819
-1.85049e-05
0.000978714
-0.000142478
1.85023e-05
0.000979488
-7.15612e-05
-6.08299e-06
0.000978769
-0.000140941
0.000974845
0.000129061
5.7965e-06
0.000980599
0.000128414
-1.79905e-05
0.000985442
-0.000136096
1.79443e-05
0.000986341
-6.74501e-05
-5.81282e-06
0.000985578
-0.000136052
0.000980834
0.000128419
5.66571e-06
0.000984839
0.000127316
-1.74369e-05
0.000990423
-0.000129031
1.74372e-05
0.000991387
-6.23908e-05
-5.54618e-06
0.000990504
-0.000129637
0.000984811
0.000128098
5.42607e-06
0.000986632
0.000128514
-1.6887e-05
0.000993174
-0.000122092
1.69277e-05
0.000994217
-5.6351e-05
-5.3436e-06
0.000993162
-0.00012197
0.000986604
0.000128561
5.18034e-06
0.000985442
0.000130955
-1.63567e-05
0.000993237
-0.00011421
1.63721e-05
0.000994425
-4.94039e-05
-5.13221e-06
0.000993229
-0.000114148
0.000985536
0.000131197
5.05263e-06
0.000981092
0.000133389
-1.58182e-05
0.000990139
-0.000104149
1.58184e-05
0.000991459
-4.13196e-05
-4.94446e-06
0.000990122
-0.00010474
0.000981062
0.0001344
4.89507e-06
0.000972811
0.000137223
-1.52728e-05
0.000983309
-9.33048e-05
1.52738e-05
0.000984716
-3.21297e-05
-4.80279e-06
0.000983286
-9.35948e-05
0.000972793
0.000137935
4.7395e-06
0.000960299
0.000142378
-1.47392e-05
0.000972377
-8.15582e-05
1.47619e-05
0.000973611
-2.19596e-05
-4.65299e-06
0.000972341
-8.17632e-05
0.000960147
0.000142887
4.55915e-06
0.000943044
0.000149144
-1.43668e-05
0.000957129
-6.92664e-05
1.44223e-05
0.000958196
-1.10134e-05
-4.5244e-06
0.000957072
-6.92012e-05
0.000942927
0.000149076
4.41054e-06
0.000920766
0.00015695
-1.41679e-05
0.000937353
-5.62878e-05
1.4234e-05
0.000939337
9.69316e-08
-4.41395e-06
0.000937286
-5.59261e-05
0.000920722
0.000156452
4.33216e-06
0.000893308
0.00016471
-1.36851e-05
0.000912607
-4.22166e-05
1.37309e-05
0.000915092
1.39098e-05
-4.31024e-06
0.000912561
-4.23127e-05
0.000893213
0.000164737
4.25477e-06
0.000860116
0.00017383
-1.31782e-05
0.000882686
-2.82093e-05
1.32153e-05
0.000885823
2.7375e-05
-4.23929e-06
0.000882633
-2.82745e-05
0.000860018
0.000173792
4.25577e-06
0.00082124
0.000183468
-1.26474e-05
0.000847635
-1.38117e-05
1.26673e-05
0.000851553
4.09426e-05
-4.25842e-06
0.000847605
-1.38415e-05
0.0008212
0.000183408
4.3399e-06
0.000776887
0.000193291
-1.20833e-05
0.000807644
6.28683e-07
1.20921e-05
0.000812423
5.46305e-05
-4.34227e-06
0.000807626
6.31142e-07
0.000776874
0.000193225
4.46987e-06
0.000727052
0.000203046
-1.15053e-05
0.000762894
1.47909e-05
1.15071e-05
0.000768656
6.82442e-05
-4.47129e-06
0.000762887
1.48014e-05
0.000727062
0.000203002
4.68924e-06
0.000672133
0.000211898
-1.09211e-05
0.000713723
2.88106e-05
1.09194e-05
0.000720562
8.15509e-05
-4.69157e-06
0.000713724
2.88216e-05
0.000672159
0.000211885
4.98313e-06
0.000612722
0.00021978
-1.03336e-05
0.000660602
4.20614e-05
1.0331e-05
0.000668591
9.42488e-05
-4.98591e-06
0.000660607
4.20672e-05
0.000612753
0.000219782
5.28395e-06
0.000549631
0.00022613
-9.76038e-06
0.000603986
5.42033e-05
9.75771e-06
0.000613269
0.000106132
-5.28648e-06
0.000603992
5.42051e-05
0.000549657
0.000226134
5.60727e-06
0.000483754
0.000229978
-9.24087e-06
0.000544365
6.51672e-05
9.23805e-06
0.000555234
0.000117186
-5.60938e-06
0.000544371
6.51662e-05
0.000483773
0.000229978
6.14246e-06
0.000229806
0.000414986
-8.8111e-06
7.54481e-05
0.000483665
8.80827e-06
0.000127439
0.000495453
-6.14425e-06
7.54452e-05
0.000483671
0.000229801
0.000414998
0.000129096
0.00106341
0.000205007
4.23217e-07
0.000760443
-0.000101773
-4.22901e-07
0.000805825
-7.21448e-05
-0.000129096
0.00076044
-0.000101773
0.0010634
0.000205008
0.000161233
0.000982193
0.000187656
8.11053e-06
0.000837047
-9.70192e-05
-8.10971e-06
0.000825486
-6.75837e-05
-0.000161232
0.000837044
-9.70192e-05
0.000982188
0.000187656
0.000115429
0.000942774
0.000176174
1.0732e-05
0.000864788
-0.000100366
-1.07309e-05
0.000847688
-7.37873e-05
-0.000115429
0.000864785
-0.000100367
0.000942768
0.000176174
9.35882e-05
0.000923404
0.000165128
7.74908e-06
0.000875123
-0.000104007
-7.74777e-06
0.000862942
-7.9911e-05
-9.35878e-05
0.00087512
-0.000104008
0.000923396
0.000165127
8.3375e-05
0.000912848
0.000154657
4.79794e-06
0.000880893
-0.000106409
-4.79694e-06
0.000873141
-8.32108e-05
-8.33763e-05
0.00088089
-0.00010641
0.000912836
0.000154657
7.70087e-05
0.000907343
0.000144973
2.71925e-06
0.000885293
-0.000108002
-2.71974e-06
0.000880518
-8.50965e-05
-7.70158e-05
0.000885291
-0.000108003
0.000907327
0.000144981
7.26019e-05
0.000905204
0.000136284
1.38577e-06
0.000889439
-0.000109129
-1.38924e-06
0.000886523
-8.63963e-05
-7.26194e-05
0.000889443
-0.000109129
0.000905183
0.000136306
6.92816e-05
0.000905534
0.000128389
5.47969e-07
0.000893805
-0.000109919
-5.46397e-07
0.000892071
-8.73968e-05
-6.93368e-05
0.000893847
-0.000109923
0.000905461
0.000128432
6.63331e-05
0.000907514
0.00012101
8.62649e-08
0.000898767
-0.000110442
-1.13177e-08
0.000897746
-8.82403e-05
-6.66165e-05
0.000898796
-0.000110502
0.000907496
0.000121147
6.38528e-05
0.000910814
0.000114141
-1.92512e-07
0.000904402
-0.000110848
3.27061e-07
0.000903782
-8.90143e-05
-6.43142e-05
0.00090432
-0.000110932
0.000911018
0.000114324
6.21471e-05
0.00091549
0.000107838
-4.92756e-07
0.000910542
-0.000111276
4.45483e-07
0.000910245
-8.97544e-05
-6.21008e-05
0.000910493
-0.000111227
0.000915647
0.000107838
6.04494e-05
0.000921077
0.000101849
-6.6768e-07
0.000917313
-0.000111553
5.07909e-07
0.000917236
-9.03885e-05
-6.00987e-05
0.00091736
-0.000111422
0.000921082
0.000101723
5.86975e-05
0.000927354
9.61902e-05
-7.07308e-07
0.000924671
-0.000111588
6.55616e-07
0.000924666
-9.08367e-05
-5.86448e-05
0.000924646
-0.000111498
0.000927478
9.60858e-05
5.7446e-05
0.000934412
9.11191e-05
-8.26884e-07
0.000932322
-0.000111482
7.01702e-07
0.000932428
-9.10822e-05
-5.71828e-05
0.000932354
-0.000111356
0.000934406
9.09051e-05
5.5958e-05
0.000941811
8.64049e-05
-8.57718e-07
0.000940285
-0.000110831
7.48158e-07
0.000940474
-9.0854e-05
-5.57309e-05
0.000940445
-0.000110745
0.000941583
8.6192e-05
5.43281e-05
0.000949233
8.23014e-05
-7.88888e-07
0.000948425
-0.000109662
8.95736e-07
0.000948557
-9.01532e-05
-5.4653e-05
0.000948404
-0.000109759
0.000949291
8.23023e-05
5.30056e-05
0.000956569
7.90478e-05
-8.22043e-07
0.000956446
-0.000107908
8.99635e-07
0.000956535
-8.87765e-05
-5.32129e-05
0.000956321
-0.000107993
0.000956759
7.89961e-05
5.19519e-05
0.000963545
7.677e-05
-9.23709e-07
0.000964066
-0.000105407
8.66055e-07
0.000964119
-8.6596e-05
-5.17616e-05
0.000963899
-0.000105376
0.000963721
7.65412e-05
5.09668e-05
0.000970094
7.56447e-05
-1.03377e-06
0.000970856
-0.000102056
8.29009e-07
0.00097095
-8.35275e-05
-5.03682e-05
0.000970743
-0.000101884
0.000970055
7.52278e-05
4.9667e-05
0.000975723
7.55228e-05
-1.06676e-06
0.000976612
-9.75004e-05
8.03984e-07
0.00097682
-7.9302e-05
-4.89225e-05
0.00097679
-9.72621e-05
0.000975124
7.5069e-05
4.80399e-05
0.000979606
7.64907e-05
-9.67544e-07
0.000981181
-9.1658e-05
9.4961e-07
0.00098134
-7.38869e-05
-4.79422e-05
0.000981253
-9.16227e-05
0.000979158
7.64426e-05
4.65306e-05
0.000981471
7.89202e-05
-9.07108e-07
0.000984155
-8.45674e-05
1.00989e-06
0.000984195
-6.71631e-05
-4.67532e-05
0.00098401
-8.46307e-05
0.000981373
7.91289e-05
4.55491e-05
0.000981378
8.30585e-05
-9.89994e-07
0.000984857
-7.6255e-05
1.00432e-06
0.000984939
-5.90893e-05
-4.5572e-05
0.000984839
-7.6223e-05
0.000981145
8.32176e-05
4.46039e-05
0.000978971
8.87573e-05
-1.04609e-06
0.000982844
-6.6547e-05
1.06709e-06
0.000983056
-4.96346e-05
-4.46581e-05
0.000982941
-6.65249e-05
0.000978682
8.9001e-05
4.3216e-05
0.000973321
9.58229e-05
-9.74532e-07
0.000978157
-5.52711e-05
1.09456e-06
0.000978365
-3.86972e-05
-4.35073e-05
0.000978144
-5.53415e-05
0.000973342
9.62329e-05
4.19173e-05
0.000964216
0.000104411
-9.45306e-07
0.000970317
-4.26027e-05
1.02116e-06
0.000970587
-2.63188e-05
-4.20789e-05
0.000970319
-4.26705e-05
0.000964398
0.0001048
4.0736e-05
0.000951342
0.000114517
-8.9279e-07
0.00095904
-2.86531e-05
9.37031e-07
0.000959388
-1.25904e-05
-4.07808e-05
0.000958991
-2.87174e-05
0.0009517
0.000114804
3.97589e-05
0.000934661
0.000126065
-8.09309e-07
0.000943882
-1.35397e-05
8.15904e-07
0.000944071
2.67847e-06
-3.96848e-05
0.000943851
-1.35607e-05
0.000934954
0.000126137
3.88768e-05
0.000913993
0.000138741
-8.54167e-07
0.000924325
2.99979e-06
8.15627e-07
0.000924521
1.79762e-05
-3.86969e-05
0.000924412
3.02609e-06
0.000914027
0.000138683
3.7716e-05
0.000888738
0.000152249
-9.228e-07
0.000901353
1.93939e-05
9.38592e-07
0.000901754
3.4816e-05
-3.7695e-05
0.000901372
1.93608e-05
0.000888832
0.000152237
3.68792e-05
0.00085919
0.000166499
-9.86326e-07
0.000874229
3.67799e-05
1.00282e-06
0.000874972
5.21672e-05
-3.68801e-05
0.000874233
3.67468e-05
0.000859268
0.000166477
3.61221e-05
0.000825395
0.000181141
-9.79347e-07
0.000843107
5.44122e-05
9.87845e-07
0.000844204
6.97433e-05
-3.61192e-05
0.000843108
5.43912e-05
0.00082545
0.000181106
3.545e-05
0.000787487
0.000195749
-9.44816e-07
0.000808173
7.19578e-05
9.46692e-07
0.000809671
8.7272e-05
-3.54421e-05
0.000808179
7.1948e-05
0.000787517
0.000195716
3.48853e-05
0.000745774
0.000209874
-9.00563e-07
0.000769697
8.90528e-05
8.99117e-07
0.000771701
0.000104415
-3.48776e-05
0.000769707
8.90501e-05
0.000745789
0.000209853
3.42647e-05
0.000700393
0.000223014
-8.04203e-07
0.000728239
0.000105337
8.01473e-07
0.000730827
0.000120819
-3.42602e-05
0.000728253
0.000105337
0.000700408
0.000223006
3.36549e-05
0.000651825
0.000234693
-6.71962e-07
0.000684262
0.000120365
6.69276e-07
0.000687632
0.000136103
-3.36533e-05
0.000684277
0.000120366
0.000651843
0.000234693
3.30346e-05
0.000600627
0.000244293
-4.92408e-07
0.000638266
0.000133727
4.90159e-07
0.00064285
0.000149931
-3.30347e-05
0.00063828
0.000133727
0.000600648
0.000244295
3.2602e-05
0.000546979
0.000251024
-3.05817e-07
0.000591186
0.000145155
3.04004e-07
0.000597354
0.000162073
-3.26026e-05
0.000591198
0.000145154
0.000546999
0.000251024
3.28915e-05
0.000253723
0.00049017
-4.33707e-07
0.000154635
0.000545325
4.32293e-07
0.000172289
0.000551638
-3.28923e-05
0.000154633
0.000545335
0.00025372
0.000490188
0.000103292
0.00103806
0.000136515
1.01259e-05
0.000774865
-5.62587e-05
-1.01256e-05
0.000817401
-5.31741e-05
-0.000103292
0.000774863
-5.62582e-05
0.00103806
0.000136516
0.00013251
0.000967719
0.000125492
1.85219e-05
0.000845618
-5.37838e-05
-1.85211e-05
0.000838298
-5.14368e-05
-0.00013251
0.000845616
-5.37834e-05
0.000967715
0.000125493
8.99016e-05
0.000937052
0.00011694
1.91446e-05
0.000872313
-5.63034e-05
-1.91434e-05
0.000859991
-5.71928e-05
-8.99009e-05
0.00087231
-5.63031e-05
0.000937047
0.000116941
7.07533e-05
0.000923228
0.000108199
1.60928e-05
0.000883119
-6.01521e-05
-1.60912e-05
0.000874779
-6.25145e-05
-7.07526e-05
0.000883115
-6.01517e-05
0.000923222
0.0001082
6.22229e-05
0.000916212
9.94503e-05
1.32659e-05
0.000889372
-6.37051e-05
-1.32642e-05
0.000884329
-6.62302e-05
-6.2223e-05
0.000889368
-6.37043e-05
0.000916203
9.94531e-05
5.71166e-05
0.000912934
9.11339e-05
1.13437e-05
0.000894003
-6.68602e-05
-1.1343e-05
0.000891029
-6.91096e-05
-5.71194e-05
0.000894
-6.68581e-05
0.000912923
9.11417e-05
5.36614e-05
0.000912071
8.34856e-05
1.00842e-05
0.000898136
-6.9685e-05
-1.00862e-05
0.000896393
-7.159e-05
-5.36698e-05
0.000898136
-6.9681e-05
0.000912058
8.35011e-05
5.11051e-05
0.000912929
7.64266e-05
9.23381e-06
0.000902315
-7.22266e-05
-9.23819e-06
0.000901298
-7.38303e-05
-5.11269e-05
0.000902323
-7.2222e-05
0.00091291
7.64528e-05
4.90261e-05
0.000915063
6.98496e-05
8.63067e-06
0.000906826
-7.45572e-05
-8.63044e-06
0.000906242
-7.59228e-05
-4.90882e-05
0.000906834
-7.45559e-05
0.000915075
6.98945e-05
4.72664e-05
0.000918248
6.36889e-05
8.17234e-06
0.000911775
-7.6704e-05
-8.16928e-06
0.000911456
-7.78872e-05
-4.73424e-05
0.000911775
-7.66998e-05
0.000918324
6.37333e-05
4.57917e-05
0.000922369
5.79252e-05
7.79292e-06
0.000917178
-7.86794e-05
-7.80959e-06
0.000917028
-7.97242e-05
-4.57802e-05
0.000917185
-7.86661e-05
0.000922449
5.79328e-05
4.44523e-05
0.00092722
5.25459e-05
7.47367e-06
0.000923046
-8.04431e-05
-7.50362e-06
0.000922995
-8.13783e-05
-4.4381e-05
0.000923065
-8.04245e-05
0.000927274
5.25173e-05
4.31732e-05
0.000932651
4.75861e-05
7.19859e-06
0.000929307
-8.1875e-05
-7.22046e-06
0.000929302
-8.27244e-05
-4.31198e-05
0.000929322
-8.18556e-05
0.00093271
4.75298e-05
4.20246e-05
0.000938554
4.31912e-05
6.94692e-06
0.000935846
-8.29436e-05
-6.97485e-06
0.000935868
-8.37271e-05
-4.19442e-05
0.000935867
-8.29322e-05
0.000938566
4.31044e-05
4.08537e-05
0.000944704
3.94017e-05
6.71338e-06
0.000942554
-8.33984e-05
-6.73485e-06
0.000942589
-8.41266e-05
-4.07925e-05
0.000942583
-8.3404e-05
0.000944658
3.93073e-05
3.97127e-05
0.000950878
3.64143e-05
6.50417e-06
0.000949271
-8.31708e-05
-6.49731e-06
0.000949288
-8.38505e-05
-3.97384e-05
0.000949264
-8.31992e-05
0.000950881
3.63413e-05
3.86449e-05
0.000956884
3.43969e-05
6.292e-06
0.000955796
-8.20801e-05
-6.2839e-06
0.00095579
-8.27032e-05
-3.86533e-05
0.000955754
-8.21139e-05
0.000956912
3.43112e-05
3.7639e-05
0.000962498
3.35168e-05
6.07834e-06
0.000961892
-7.99426e-05
-6.08437e-06
0.000961862
-8.0505e-05
-3.75699e-05
0.000961825
-7.99622e-05
0.00096249
3.33936e-05
3.66827e-05
0.000967504
3.39562e-05
5.87217e-06
0.000967278
-7.66321e-05
-5.89501e-06
0.00096723
-7.71284e-05
-3.65334e-05
0.000967208
-7.66292e-05
0.000967379
3.38047e-05
3.56756e-05
0.000971549
3.58013e-05
5.67245e-06
0.000971698
-7.19173e-05
-5.69944e-06
0.000971643
-7.23436e-05
-3.55127e-05
0.000971659
-7.18998e-05
0.00097126
3.56754e-05
3.46371e-05
0.000974207
3.91964e-05
5.49385e-06
0.000974884
-6.57e-05
-5.49087e-06
0.000974803
-6.60624e-05
-3.45935e-05
0.000974829
-6.56894e-05
0.000973928
3.91815e-05
3.36428e-05
0.000975174
4.43101e-05
5.3161e-06
0.000976511
-5.78679e-05
-5.29668e-06
0.000976409
-5.81563e-05
-3.36735e-05
0.000976432
-5.78577e-05
0.000974991
4.43924e-05
3.27486e-05
0.00097423
5.1254e-05
5.13164e-06
0.000976216
-4.83437e-05
-5.11977e-06
0.000976124
-4.8553e-05
-3.27665e-05
0.000976173
-4.83172e-05
0.000974064
5.13776e-05
3.1886e-05
0.000971055
6.00458e-05
4.95765e-06
0.000973676
-3.70789e-05
-4.94333e-06
0.000973603
-3.7213e-05
-3.19204e-05
0.000973674
-3.70495e-05
0.00097093
6.02148e-05
3.09863e-05
0.000965235
7.06566e-05
4.7978e-06
0.000968654
-2.40601e-05
-4.77018e-06
0.00096859
-2.41163e-05
-3.10624e-05
0.000968665
-2.40398e-05
0.000965236
7.08646e-05
3.01128e-05
0.000956491
8.30416e-05
4.63481e-06
0.000960878
-9.3492e-06
-4.60905e-06
0.000960831
-9.31583e-06
-3.01809e-05
0.000960906
-9.33982e-06
0.000956608
8.32467e-05
2.9288e-05
0.000944604
9.71154e-05
4.46676e-06
0.000950119
6.92717e-06
-4.44519e-06
0.000950092
7.06042e-06
-2.93322e-05
0.000950149
6.92687e-06
0.000944806
9.72731e-05
2.85136e-05
0.000929447
0.000112708
4.30141e-06
0.000936189
2.46028e-05
-4.28608e-06
0.000936512
2.48452e-05
-2.85196e-05
0.000936221
2.45998e-05
0.000929637
0.000112787
2.77693e-05
0.000910876
0.000129543
4.28381e-06
0.000919218
4.34558e-05
-4.27698e-06
0.000919331
4.37187e-05
-2.77493e-05
0.00091927
4.34499e-05
0.000911
0.00012957
2.71996e-05
0.000888603
0.000147322
4.13291e-06
0.000898568
6.31102e-05
-4.12242e-06
0.000898878
6.3524e-05
-2.71972e-05
0.000898606
6.30989e-05
0.00088871
0.00014733
2.66579e-05
0.000862718
0.000165726
4.02017e-06
0.000874638
8.33476e-05
-4.01148e-06
0.000875168
8.39086e-05
-2.66591e-05
0.000874666
8.33346e-05
0.000862805
0.000165723
2.61678e-05
0.000833328
0.000184363
3.94312e-06
0.000847515
0.00010376
-3.93777e-06
0.000848313
0.000104479
-2.61671e-05
0.000847536
0.00010375
0.000833391
0.000184353
2.57431e-05
0.000800563
0.000202771
3.89156e-06
0.000817396
0.000123927
-3.88918e-06
0.000818533
0.000124832
-2.57412e-05
0.000817415
0.000123921
0.000800606
0.00020276
2.53868e-05
0.000764612
0.000220438
3.86529e-06
0.000784576
0.000143394
-3.86512e-06
0.000786152
0.000144527
-2.53853e-05
0.000784594
0.000143391
0.000764642
0.000220431
2.50918e-05
0.000725688
0.000236846
3.87231e-06
0.00074944
0.000161693
-3.87353e-06
0.000751595
0.000163121
-2.50915e-05
0.000749457
0.000161692
0.000725713
0.000236844
2.48554e-05
0.00068408
0.000251445
3.92075e-06
0.000712393
0.000178346
-3.92262e-06
0.000715372
0.000180168
-2.4856e-05
0.000712409
0.000178347
0.000684105
0.000251446
2.46428e-05
0.000640109
0.000263622
4.02956e-06
0.000673845
0.000192888
-4.03152e-06
0.000678117
0.000195247
-2.46438e-05
0.000673861
0.000192888
0.000640133
0.000263622
2.46716e-05
0.000593754
0.000272707
4.17722e-06
0.000634543
0.000204952
-4.17887e-06
0.000640505
0.000208041
-2.46725e-05
0.000634557
0.000204951
0.000593777
0.000272707
2.55547e-05
0.000277874
0.000544049
4.06605e-06
0.000214302
0.000596364
-4.06717e-06
0.000218246
0.000602681
-2.55554e-05
0.000214301
0.000596377
0.000277873
0.000544069
8.43623e-05
0.00103046
9.19556e-05
1.17718e-05
0.000783582
-3.26496e-05
-1.17716e-05
0.00081974
-3.5727e-05
-8.43621e-05
0.000783581
-3.26489e-05
0.00103046
9.19567e-05
0.000108615
0.000963472
8.38686e-05
1.91827e-05
0.000850836
-3.16056e-05
-1.91821e-05
0.000842467
-3.57985e-05
-0.000108615
0.000850835
-3.16049e-05
0.000963469
8.38699e-05
6.76554e-05
0.000935796
7.69612e-05
1.98658e-05
0.000876373
-3.40499e-05
-1.98647e-05
0.000865182
-4.01779e-05
-6.76546e-05
0.000876371
-3.40489e-05
0.000935792
7.6963e-05
4.99115e-05
0.00092425
6.98338e-05
1.64639e-05
0.000887436
-3.77675e-05
-1.64621e-05
0.000880323
-4.47292e-05
-4.99105e-05
0.000887434
-3.77659e-05
0.000924245
6.98366e-05
4.23523e-05
0.000918858
6.24901e-05
1.36166e-05
0.0008941
-4.16329e-05
-1.36143e-05
0.000890009
-4.86851e-05
-4.23514e-05
0.000894097
-4.16305e-05
0.000918853
6.24946e-05
3.80725e-05
0.000916624
5.52955e-05
1.17518e-05
0.000898992
-4.54315e-05
-1.17496e-05
0.000896686
-5.22851e-05
-3.80726e-05
0.00089899
-4.54278e-05
0.000916619
5.53032e-05
3.53201e-05
0.000916312
4.84772e-05
1.05478e-05
0.000903177
-4.90977e-05
-1.05469e-05
0.000901876
-5.56852e-05
-3.53222e-05
0.000903177
-4.90924e-05
0.000916308
4.84891e-05
3.3385e-05
0.000917316
4.20379e-05
9.74164e-06
0.000907196
-5.26023e-05
-9.74244e-06
0.000906458
-5.89281e-05
-3.33907e-05
0.000907198
-5.25957e-05
0.000917316
4.20544e-05
3.19021e-05
0.000919315
3.59483e-05
9.166e-06
0.00091133
-5.59547e-05
-9.16806e-06
0.000910916
-6.20468e-05
-3.19132e-05
0.000911336
-5.59481e-05
0.000919328
3.59694e-05
3.06817e-05
0.000922134
3.01878e-05
8.72458e-06
0.000915713
-5.91307e-05
-8.72696e-06
0.000915497
-6.50167e-05
-3.06905e-05
0.000915724
-5.91249e-05
0.000922164
3.02065e-05
2.96437e-05
0.000925646
2.47699e-05
8.36636e-06
0.000920409
-6.2098e-05
-8.36691e-06
0.000920311
-6.78047e-05
-2.96389e-05
0.000920423
-6.20931e-05
0.000925683
2.47746e-05
2.87283e-05
0.000929721
1.9742e-05
8.05971e-06
0.00092543
-6.47953e-05
-8.05939e-06
0.000925396
-7.03444e-05
-2.87122e-05
0.000925444
-6.47931e-05
0.000929759
1.97295e-05
2.78735e-05
0.00093425
1.51841e-05
7.78286e-06
0.000930726
-6.70807e-05
-7.78399e-06
0.000930725
-7.24863e-05
-2.78521e-05
0.00093074
-6.70835e-05
0.000934281
1.51557e-05
2.70882e-05
0.000939112
1.12409e-05
7.53738e-06
0.000936223
-6.88896e-05
-7.53786e-06
0.000936237
-7.41648e-05
-2.7064e-05
0.000936233
-6.88988e-05
0.000939125
1.1196e-05
2.63199e-05
0.000944155
8.03826e-06
7.30196e-06
0.000941814
-6.99718e-05
-7.30045e-06
0.000941834
-7.51213e-05
-2.62995e-05
0.000941816
-6.99882e-05
0.000944148
7.98447e-06
2.5592e-05
0.000949213
5.76471e-06
7.08093e-06
0.000947365
-7.02109e-05
-7.07658e-06
0.000947382
-7.52408e-05