/*--------------------------------*- C++ -*----------------------------------*\
  =========                 |
  \\      /  F ield         | OpenFOAM: The Open Source CFD Toolbox
   \\    /   O peration     | Website:  https://openfoam.org
    \\  /    A nd           | Version:  9
     \\/     M anipulation  |
\*---------------------------------------------------------------------------*/
FoamFile
{
    format      ascii;
    class       volVectorField;
    location    "5";
    object      U;
}
// * * * * * * * * * * * * * * * * * * * * * * * * * * * * * * * * * * * * * //

dimensions      [0 1 -1 0 0 0 0];

internalField   nonuniform List<vector> 
4545
(
(0.2225 -0.733558 -2.3057)
(-0.155018 -0.211451 -0.0112656)
(0.0073139 -0.246511 9.34567e-08)
(-0.155018 -0.211448 0.0112658)
(0.222499 -0.733552 2.3057)
(0.14833 -0.580181 -2.20483)
(-0.129105 -0.317798 -0.0142409)
(0.0178793 -0.287672 1.98355e-07)
(-0.129105 -0.317795 0.0142412)
(0.14833 -0.580175 2.20483)
(0.13251 -0.497579 -2.24019)
(-0.132293 -0.341974 -0.0203707)
(0.00878522 -0.305385 2.4346e-07)
(-0.132293 -0.341972 0.0203711)
(0.132509 -0.497573 2.24019)
(0.129599 -0.46605 -2.22838)
(-0.132448 -0.363278 -0.0266107)
(0.00383481 -0.329972 1.24585e-07)
(-0.132449 -0.363276 0.0266109)
(0.129598 -0.466046 2.22838)
(0.125328 -0.441482 -2.21989)
(-0.131314 -0.37685 -0.0309135)
(0.00307199 -0.351093 -5.24727e-07)
(-0.131315 -0.376849 0.030913)
(0.125326 -0.441478 2.21989)
(0.121802 -0.425064 -2.21349)
(-0.130373 -0.385013 -0.0336438)
(0.003424 -0.366896 -2.10557e-06)
(-0.130373 -0.385015 0.0336396)
(0.121804 -0.42506 2.21349)
(0.119198 -0.415767 -2.20833)
(-0.129645 -0.390711 -0.0353779)
(0.00402889 -0.378574 -1.34372e-06)
(-0.129644 -0.390728 0.0353596)
(0.119213 -0.415717 2.20835)
(0.116995 -0.4109 -2.17512)
(-0.129011 -0.395228 -0.0365396)
(0.00446811 -0.387352 1.90048e-05)
(-0.12902 -0.395287 0.0364738)
(0.117078 -0.410821 2.18802)
(0.115224 -0.408932 -2.171)
(-0.128514 -0.39928 -0.0370527)
(0.00464921 -0.394276 -5.60831e-07)
(-0.1285 -0.399357 0.0370442)
(0.115312 -0.408838 2.18403)
(0.113574 -0.408836 -2.15925)
(-0.128027 -0.403337 -0.0373291)
(0.00461125 -0.400129 -3.23882e-05)
(-0.127984 -0.403308 0.0373663)
(0.113659 -0.408793 2.16794)
(0.111935 -0.410005 -2.11808)
(-0.127454 -0.407514 -0.0376968)
(0.00441632 -0.405528 5.56505e-05)
(-0.127489 -0.407362 0.0374364)
(0.112126 -0.410099 2.16445)
(0.110403 -0.412373 -2.12033)
(-0.126965 -0.411847 -0.0377292)
(0.00416019 -0.410796 4.79283e-05)
(-0.127015 -0.411775 0.037406)
(0.110522 -0.412523 2.15156)
(0.108894 -0.415512 -2.11561)
(-0.126434 -0.416579 -0.0376385)
(0.00388237 -0.416122 -4.69619e-05)
(-0.12641 -0.416569 0.0375434)
(0.108914 -0.415451 2.10872)
(0.107343 -0.419376 -2.10351)
(-0.12583 -0.421665 -0.0376388)
(0.00355823 -0.421628 3.62034e-05)
(-0.125864 -0.421611 0.037404)
(0.107428 -0.419295 2.12815)
(0.105864 -0.423878 -2.10654)
(-0.125203 -0.426937 -0.0374423)
(0.00322799 -0.427322 3.66189e-05)
(-0.125254 -0.427038 0.0372355)
(0.105926 -0.423805 2.12342)
(0.104387 -0.428756 -2.10153)
(-0.124506 -0.432617 -0.0371383)
(0.00294178 -0.433288 -7.27187e-05)
(-0.124449 -0.432764 0.0371944)
(0.104384 -0.428441 2.09325)
(0.102956 -0.433697 -2.09074)
(-0.123686 -0.438676 -0.0368657)
(0.00274163 -0.439464 8.38636e-06)
(-0.123687 -0.438632 0.0367681)
(0.10303 -0.433755 2.13139)
(0.101715 -0.438811 -2.12998)
(-0.12274 -0.444738 -0.0365854)
(0.00265657 -0.44561 4.81304e-05)
(-0.122784 -0.444548 0.0363255)
(0.101821 -0.439163 2.1733)
(0.100378 -0.444442 -2.12187)
(-0.121532 -0.450541 -0.0364476)
(0.00274232 -0.451703 5.69087e-05)
(-0.121609 -0.450369 0.0361269)
(0.100377 -0.445005 2.13403)
(0.0991374 -0.449525 -2.07676)
(-0.12012 -0.456173 -0.0362341)
(0.00304502 -0.457735 8.12318e-05)
(-0.120271 -0.456319 0.0359471)
(0.0991438 -0.449916 2.08265)
(0.0982813 -0.454082 -2.11999)
(-0.11865 -0.461506 -0.0356638)
(0.00356689 -0.463404 -8.9931e-05)
(-0.118596 -0.461957 0.0357994)
(0.0981236 -0.454044 2.06535)
(0.0975437 -0.458082 -2.10898)
(-0.116854 -0.4664 -0.0351724)
(0.00436228 -0.468356 -4.52308e-05)
(-0.116753 -0.466586 0.0353665)
(0.0974507 -0.458137 2.10911)
(0.0970183 -0.460823 -2.10486)
(-0.114609 -0.470444 -0.0349534)
(0.00551475 -0.472367 3.67825e-05)
(-0.114623 -0.470359 0.0350806)
(0.0969934 -0.461323 2.10447)
(0.0967292 -0.462914 -2.10029)
(-0.112006 -0.473039 -0.0347496)
(0.00706472 -0.475322 -2.50325e-05)
(-0.111971 -0.473118 0.035014)
(0.0966234 -0.462991 2.04888)
(0.0968698 -0.463201 -2.09654)
(-0.109164 -0.474323 -0.0341837)
(0.00900395 -0.476986 -8.36871e-05)
(-0.109036 -0.474353 0.0345712)
(0.0967155 -0.463104 2.04918)
(0.0974215 -0.461665 -2.13915)
(-0.105935 -0.473976 -0.0335136)
(0.0113712 -0.476968 -5.22396e-05)
(-0.105837 -0.473945 0.0337599)
(0.09732 -0.461369 2.0982)
(0.0982604 -0.458071 -2.13638)
(-0.102264 -0.471543 -0.0329894)
(0.0141086 -0.475026 5.57678e-06)
(-0.102191 -0.471466 0.0330233)
(0.0982593 -0.457726 2.14606)
(0.0993346 -0.452062 -2.0996)
(-0.0981114 -0.466926 -0.0326616)
(0.0167096 -0.470969 3.22099e-05)
(-0.0981873 -0.466634 0.0325714)
(0.0994256 -0.451355 2.12031)
(0.100817 -0.442669 -2.04312)
(-0.0936406 -0.459547 -0.0323595)
(0.0188835 -0.464472 6.44995e-05)
(-0.0937875 -0.459608 0.0321945)
(0.100784 -0.442662 2.0633)
(0.102758 -0.430022 -2.03094)
(-0.0889484 -0.449624 -0.0317556)
(0.0218532 -0.455139 3.65593e-05)
(-0.0889534 -0.449596 0.0315798)
(0.102845 -0.429773 2.06966)
(0.105151 -0.415108 -2.08244)
(-0.083692 -0.436887 -0.0309509)
(0.0254687 -0.442806 3.52952e-05)
(-0.0837351 -0.436758 0.0307937)
(0.105323 -0.414914 2.12394)
(0.10828 -0.395495 -2.1374)
(-0.0779279 -0.420652 -0.0300602)
(0.0296115 -0.427433 5.8677e-06)
(-0.0779558 -0.420603 0.0300336)
(0.108275 -0.395661 2.13742)
(0.111394 -0.372767 -2.10949)
(-0.0717674 -0.401332 -0.02941)
(0.0342579 -0.409085 1.30766e-06)
(-0.071776 -0.401301 0.0294015)
(0.111392 -0.372775 2.1096)
(0.114739 -0.346278 -2.10891)
(-0.0652608 -0.37887 -0.028683)
(0.0393369 -0.387746 1.15609e-06)
(-0.0652545 -0.378851 0.028677)
(0.114751 -0.346319 2.10902)
(0.118409 -0.315362 -2.1374)
(-0.0585501 -0.353139 -0.0277213)
(0.0447492 -0.363319 1.28746e-06)
(-0.0585361 -0.35312 0.0277157)
(0.11843 -0.315365 2.13741)
(0.122005 -0.280958 -2.13861)
(-0.0516708 -0.324425 -0.0267587)
(0.0504172 -0.3358 6.48636e-07)
(-0.0516621 -0.324414 0.0267531)
(0.122015 -0.280954 2.13863)
(0.125413 -0.242795 -2.14043)
(-0.0447448 -0.293075 -0.0257512)
(0.0562644 -0.305316 -4.39711e-07)
(-0.0447435 -0.29307 0.0257466)
(0.125406 -0.242789 2.14044)
(0.127812 -0.201283 -2.14294)
(-0.0375874 -0.259678 -0.0247196)
(0.0624745 -0.271926 -1.26486e-06)
(-0.03759 -0.259675 0.0247159)
(0.1278 -0.20127 2.14295)
(0.126014 -0.157909 -2.14293)
(-0.0283953 -0.223969 -0.023664)
(0.0696179 -0.235325 -1.65957e-06)
(-0.028399 -0.223967 0.023661)
(0.126001 -0.157896 2.14294)
(0.141334 -0.577854 -1.75456)
(-0.0947886 -0.310248 0.0127792)
(-0.0360846 -0.346833 6.96259e-08)
(-0.0947883 -0.310247 -0.012779)
(0.141335 -0.577851 1.75456)
(0.132021 -0.491604 -1.59448)
(-0.0911712 -0.384571 0.0153465)
(-0.0327369 -0.371346 1.49512e-07)
(-0.0911714 -0.384569 -0.0153462)
(0.132021 -0.491601 1.59448)
(0.132967 -0.465456 -1.57934)
(-0.0956131 -0.395084 0.00814134)
(-0.0383388 -0.378494 1.88078e-07)
(-0.0956138 -0.395083 -0.00814104)
(0.132966 -0.465454 1.57934)
(0.130937 -0.447831 -1.55127)
(-0.0981157 -0.403881 0.00374386)
(-0.0423744 -0.390514 1.59285e-07)
(-0.0981169 -0.40388 -0.00374365)
(0.130935 -0.447828 1.55127)
(0.128301 -0.435867 -1.52929)
(-0.0992406 -0.408277 0.00125587)
(-0.0439375 -0.398998 -3.44963e-08)
(-0.0992427 -0.408276 -0.00125609)
(0.1283 -0.435864 1.52929)
(0.125699 -0.429028 -1.51094)
(-0.0999419 -0.411096 -0.000287343)
(-0.0445273 -0.405042 -5.96202e-07)
(-0.0999478 -0.411096 0.000285714)
(0.125711 -0.429024 1.51095)
(0.123408 -0.42545 -1.49516)
(-0.100515 -0.413506 -0.00123246)
(-0.0448196 -0.409655 -7.38538e-07)
(-0.100523 -0.413512 0.00122864)
(0.123445 -0.425448 1.49517)
(0.121321 -0.423981 -1.48122)
(-0.100968 -0.415915 -0.00181301)
(-0.0450547 -0.413472 2.10183e-06)
(-0.100992 -0.415925 0.00181188)
(0.121409 -0.423988 1.48123)
(0.118801 -0.423999 -1.46866)
(-0.100799 -0.418513 -0.00216647)
(-0.0452796 -0.416975 5.68734e-07)
(-0.101218 -0.418521 0.00216823)
(0.119338 -0.424009 1.46864)
(0.116557 -0.425118 -1.45704)
(-0.100748 -0.421397 -0.00238396)
(-0.0456264 -0.42044 -3.36799e-06)
(-0.101526 -0.421397 0.00238277)
(0.117494 -0.425118 1.45701)
(0.115391 -0.427099 -1.4461)
(-0.101664 -0.424608 -0.00251754)
(-0.0461065 -0.424033 3.46555e-06)
(-0.101502 -0.424592 0.00251353)
(0.115385 -0.427083 1.44614)
(0.113892 -0.429768 -1.43559)
(-0.10219 -0.428149 -0.00260507)
(-0.0465928 -0.427839 -1.29011e-06)
(-0.10145 -0.428129 0.00258611)
(0.113241 -0.429751 1.43569)
(0.112217 -0.432965 -1.42535)
(-0.102441 -0.432031 -0.00265391)
(-0.0471542 -0.431901 -1.28488e-05)
(-0.102314 -0.432025 0.00262448)
(0.112104 -0.432952 1.42544)
(0.111393 -0.436603 -1.41557)
(-0.103425 -0.43622 -0.00268075)
(-0.0477016 -0.436211 -3.49945e-06)
(-0.102816 -0.436219 0.00266034)
(0.110729 -0.436598 1.41565)
(0.110003 -0.44057 -1.40589)
(-0.103713 -0.440638 -0.00268793)
(-0.0481077 -0.440726 -1.95628e-06)
(-0.103107 -0.440643 0.00266883)
(0.109291 -0.440594 1.40591)
(0.108295 -0.444802 -1.39646)
(-0.10346 -0.44524 -0.00267655)
(-0.0484714 -0.445402 -1.10998e-05)
(-0.104226 -0.445255 0.00266306)
(0.109023 -0.444822 1.39637)
(0.107322 -0.449181 -1.38713)
(-0.103573 -0.449939 -0.00265609)
(-0.0485818 -0.450142 -9.42919e-07)
(-0.104091 -0.44994 0.00266096)
(0.107797 -0.44918 1.38701)
(0.107092 -0.453508 -1.3778)
(-0.103917 -0.454568 -0.00265613)
(-0.0484588 -0.454803 2.48058e-06)
(-0.10362 -0.454543 0.00265282)
(0.106678 -0.453462 1.37777)
(0.107484 -0.457604 -1.36873)
(-0.104235 -0.458976 -0.0026487)
(-0.0481314 -0.459268 1.56685e-06)
(-0.102995 -0.458963 0.00262594)
(0.10598 -0.457582 1.36885)
(0.107399 -0.461344 -1.35981)
(-0.103441 -0.463067 -0.00261627)
(-0.0472883 -0.463416 4.01896e-06)
(-0.101579 -0.463088 0.00259401)
(0.105172 -0.461389 1.35998)
(0.106573 -0.464551 -1.35113)
(-0.101203 -0.466644 -0.00259496)
(-0.045982 -0.467047 -1.1708e-05)
(-0.101144 -0.466702 0.00258001)
(0.106423 -0.464634 1.35128)
(0.106463 -0.467026 -1.34269)
(-0.0986654 -0.469486 -0.00255622)
(-0.0441183 -0.469929 -3.78715e-06)
(-0.0994432 -0.469539 0.0025789)
(0.107412 -0.467073 1.34283)
(0.108449 -0.468512 -1.33446)
(-0.0969136 -0.471388 -0.00253764)
(-0.04169 -0.47186 7.82704e-06)
(-0.0967898 -0.471397 0.00256438)
(0.10846 -0.468509 1.33468)
(0.111186 -0.46873 -1.32657)
(-0.0946221 -0.472113 -0.00252357)
(-0.0387647 -0.472643 1.48767e-06)
(-0.09458 -0.47211 0.00253651)
(0.111344 -0.468741 1.32684)
(0.113001 -0.467477 -1.31923)
(-0.0901331 -0.471454 -0.00248121)
(-0.0349992 -0.472052 -5.1426e-06)
(-0.0909696 -0.47145 0.00250156)
(0.114203 -0.467492 1.31945)
(0.115868 -0.464541 -1.31237)
(-0.0852047 -0.469161 -0.00244003)
(-0.0303778 -0.469807 -3.54783e-06)
(-0.0856568 -0.469154 0.00245859)
(0.116726 -0.464527 1.31258)
(0.119623 -0.459659 -1.30612)
(-0.0796209 -0.464998 -0.00239791)
(-0.0249933 -0.465616 2.59335e-06)
(-0.0799474 -0.464983 0.00242154)
(0.120325 -0.45963 1.30627)
(0.124804 -0.452655 -1.30053)
(-0.0738189 -0.458825 -0.00239727)
(-0.0188978 -0.459365 1.03128e-05)
(-0.0737249 -0.458789 0.00241619)
(0.124767 -0.452573 1.30059)
(0.130823 -0.443311 -1.2956)
(-0.067469 -0.450541 -0.00242969)
(-0.0122168 -0.451253 1.44289e-05)
(-0.0669296 -0.450522 0.00244325)
(0.130195 -0.443289 1.29563)
(0.136391 -0.431531 -1.29144)
(-0.059571 -0.440012 -0.00237695)
(-0.00491195 -0.441051 9.29251e-06)
(-0.0596903 -0.439985 0.00239189)
(0.136574 -0.431489 1.29144)
(0.143806 -0.417189 -1.28805)
(-0.0519188 -0.427067 -0.00231499)
(0.00298204 -0.428388 7.81848e-06)
(-0.0519932 -0.42704 0.0023269)
(0.143886 -0.417141 1.28804)
(0.151879 -0.400072 -1.28554)
(-0.0436197 -0.411638 -0.00222313)
(0.0114275 -0.413299 3.99455e-06)
(-0.0436382 -0.41162 0.00222646)
(0.151837 -0.400044 1.28555)
(0.160267 -0.380317 -1.28396)
(-0.0348683 -0.393808 -0.00209517)
(0.0204494 -0.395858 1.73339e-06)
(-0.0348527 -0.393798 0.00209632)
(0.160189 -0.380302 1.28399)
(0.169095 -0.357941 -1.28328)
(-0.0259816 -0.373664 -0.00194631)
(0.0299484 -0.37615 4.36761e-07)
(-0.0259548 -0.373658 0.00194645)
(0.169034 -0.357941 1.28332)
(0.177334 -0.333029 -1.28363)
(-0.0163859 -0.351318 -0.00176591)
(0.0397977 -0.354298 -1.80156e-07)
(-0.0163649 -0.351316 0.00176516)
(0.177312 -0.333038 1.28368)
(0.185158 -0.305828 -1.28507)
(-0.00679244 -0.326973 -0.00155625)
(0.0497507 -0.330481 -2.88045e-07)
(-0.00678186 -0.326974 0.00155522)
(0.185157 -0.305842 1.28511)
(0.192206 -0.276584 -1.2876)
(0.00250732 -0.300901 -0.00133753)
(0.0596498 -0.304941 -2.90626e-07)
(0.00251157 -0.300904 0.00133653)
(0.192209 -0.276598 1.28763)
(0.197623 -0.245765 -1.29134)
(0.0114619 -0.273281 -0.00112025)
(0.0695274 -0.277948 -3.49618e-07)
(0.0114623 -0.273284 0.00111928)
(0.197623 -0.245775 1.29135)
(0.199928 -0.214176 -1.278)
(0.0204354 -0.243972 -0.000856046)
(0.0795219 -0.249719 -3.91334e-07)
(0.0204333 -0.243975 0.000855107)
(0.199923 -0.214183 1.27801)
(0.0928808 -0.531294 -1.46236)
(-0.0491572 -0.333023 0.0183087)
(-0.0298196 -0.377041 4.85605e-08)
(-0.049157 -0.333022 -0.0183087)
(0.0928812 -0.531292 1.46236)
(0.0850234 -0.465433 -1.29357)
(-0.046821 -0.396304 0.0246136)
(-0.0271138 -0.39355 1.28442e-07)
(-0.0468211 -0.396302 -0.0246134)
(0.0850233 -0.465431 1.29357)
(0.0816759 -0.453507 -1.26226)
(-0.049407 -0.406362 0.0186921)
(-0.0306272 -0.397938 1.85835e-07)
(-0.0494075 -0.406361 -0.0186918)
(0.0816754 -0.453505 1.26226)
(0.0784767 -0.442726 -1.22884)
(-0.0519554 -0.413737 0.0152916)
(-0.0340393 -0.406867 2.13379e-07)
(-0.0519562 -0.413735 -0.0152914)
(0.0784756 -0.442723 1.22884)
(0.0752847 -0.435588 -1.20291)
(-0.0537919 -0.417235 0.0135349)
(-0.036057 -0.412692 1.66739e-07)
(-0.0537929 -0.417233 -0.0135349)
(0.0752837 -0.435583 1.20291)
(0.0723873 -0.431882 -1.18148)
(-0.0552666 -0.419501 0.0124602)
(-0.0374347 -0.416662 -8.26011e-08)
(-0.0552674 -0.419499 -0.0124613)
(0.07239 -0.431876 1.18148)
(0.069854 -0.430193 -1.16323)
(-0.0565348 -0.421463 0.0117782)
(-0.038568 -0.419723 -6.00239e-07)
(-0.0565354 -0.421464 -0.0117816)
(0.0698631 -0.430183 1.16324)
(0.067602 -0.429832 -1.14727)
(-0.057675 -0.42345 0.0113298)
(-0.0395917 -0.422397 2.77275e-07)
(-0.0576792 -0.423461 -0.0113384)
(0.0676166 -0.429809 1.14729)
(0.0655016 -0.430415 -1.13305)
(-0.0587254 -0.425652 0.0109871)
(-0.0405778 -0.425025 1.34686e-05)
(-0.05875 -0.425667 -0.0110205)
(0.065542 -0.430394 1.13308)
(0.0635373 -0.431695 -1.12011)
(-0.0597522 -0.428163 0.0107418)
(-0.0415713 -0.427791 2.46635e-05)
(-0.0597843 -0.428151 -0.0107951)
(0.0635948 -0.43174 1.12015)
(0.0616998 -0.433613 -1.1081)
(-0.0608064 -0.430956 0.0106125)
(-0.0425796 -0.430751 -8.84027e-06)
(-0.06079 -0.430926 -0.0106134)
(0.0617176 -0.433699 1.10813)
(0.0598917 -0.436071 -1.09677)
(-0.0618191 -0.434026 0.0104972)
(-0.043567 -0.433945 -3.04687e-05)
(-0.061765 -0.434024 -0.010466)
(0.0598821 -0.436112 1.09679)
(0.0581582 -0.438906 -1.08592)
(-0.0627659 -0.437392 0.010394)
(-0.0445124 -0.43738 -1.00598e-05)
(-0.0627212 -0.437398 -0.0103947)
(0.0581454 -0.438937 1.08594)
(0.0565494 -0.44209 -1.07573)
(-0.0636396 -0.440972 0.0103518)
(-0.0453714 -0.441 -2.48276e-05)
(-0.0635852 -0.440977 -0.0103286)
(0.0564899 -0.442115 1.07573)
(0.0550537 -0.445547 -1.06575)
(-0.0643214 -0.444699 0.0102843)
(-0.0460695 -0.44477 -2.21623e-05)
(-0.0642853 -0.444741 -0.0102641)
(0.0549779 -0.445495 1.06574)
(0.0537617 -0.449096 -1.05612)
(-0.0647658 -0.448545 0.0102007)
(-0.0465562 -0.448622 2.20422e-05)
(-0.0648064 -0.448577 -0.0102408)
(0.0537432 -0.449057 1.0561)
(0.0527729 -0.452629 -1.04678)
(-0.0649328 -0.452412 0.0101477)
(-0.0467325 -0.452465 1.6325e-05)
(-0.0649755 -0.452381 -0.0101719)
(0.0527269 -0.452688 1.04675)
(0.0521765 -0.456065 -1.03765)
(-0.0647397 -0.45616 0.0101291)
(-0.0465192 -0.456195 -1.23754e-05)
(-0.0647322 -0.45609 -0.0101039)
(0.0520779 -0.456155 1.03762)
(0.052106 -0.459321 -1.02886)
(-0.0640786 -0.459616 0.0101148)
(-0.045829 -0.459655 -4.48416e-05)
(-0.0640045 -0.459555 -0.0100384)
(0.0519508 -0.459348 1.02883)
(0.0525622 -0.462254 -1.02022)
(-0.0627808 -0.462642 0.0100514)
(-0.0445272 -0.462713 -5.87132e-05)
(-0.0626713 -0.462655 -0.00995594)
(0.0523888 -0.462102 1.02022)
(0.0535853 -0.464559 -1.01189)
(-0.0607519 -0.465144 0.00994016)
(-0.0425337 -0.465224 -4.09317e-06)
(-0.0607281 -0.465194 -0.00992348)
(0.0535814 -0.464316 1.01194)
(0.0554053 -0.465979 -1.00387)
(-0.0579559 -0.46698 0.00983655)
(-0.0397552 -0.467025 2.38839e-05)
(-0.0579846 -0.466967 -0.00986047)
(0.0555097 -0.46584 1.00399)
(0.0581845 -0.466456 -0.996202)
(-0.0543548 -0.467901 0.00980746)
(-0.0361066 -0.467936 3.38494e-06)
(-0.0543407 -0.467866 -0.00980883)
(0.0582723 -0.466368 0.99635)
(0.061936 -0.465911 -0.988927)
(-0.0498172 -0.467644 0.00978765)
(-0.0315284 -0.467713 5.06673e-06)
(-0.0498033 -0.467656 -0.00979436)
(0.0620772 -0.46579 0.989095)
(0.0666452 -0.464047 -0.9821)
(-0.0442066 -0.466102 0.00969241)
(-0.025927 -0.466197 2.95952e-05)
(-0.0442379 -0.46612 -0.00972929)
(0.0668673 -0.463983 0.982275)
(0.0724224 -0.460593 -0.975762)
(-0.0375491 -0.463173 0.00959962)
(-0.0192557 -0.463287 1.90776e-05)
(-0.037583 -0.463172 -0.00961789)
(0.0726403 -0.460643 0.975916)
(0.0793313 -0.45542 -0.969996)
(-0.0298361 -0.458681 0.0095325)
(-0.0115057 -0.458825 1.13501e-05)
(-0.0298783 -0.458672 -0.00953137)
(0.0794902 -0.455554 0.970099)
(0.0873928 -0.448448 -0.964838)
(-0.021104 -0.452431 0.00951624)
(-0.00266904 -0.452556 1.72459e-06)
(-0.0211311 -0.452417 -0.00949613)
(0.0874177 -0.448601 0.964873)
(0.0964917 -0.439597 -0.960291)
(-0.0113627 -0.444212 0.00948525)
(0.00726065 -0.444298 -1.02897e-05)
(-0.0113761 -0.444224 -0.00945047)
(0.0964389 -0.439682 0.960291)
(0.106484 -0.428709 -0.956504)
(-0.000616972 -0.43413 0.0093708)
(0.0180933 -0.43426 4.29929e-06)
(-0.000652054 -0.434152 -0.00936106)
(0.106458 -0.42874 0.956506)
(0.117378 -0.41572 -0.953466)
(0.0109015 -0.422235 0.00933353)
(0.0297302 -0.422499 4.57976e-06)
(0.0108692 -0.422242 -0.00932915)
(0.117345 -0.415756 0.95347)
(0.129011 -0.400674 -0.951258)
(0.0230754 -0.408403 0.00933201)
(0.0420467 -0.408834 2.40499e-06)
(0.0230543 -0.408404 -0.00932879)
(0.128975 -0.400705 0.951267)
(0.14111 -0.383632 -0.949947)
(0.0357334 -0.392696 0.0093573)
(0.0548901 -0.393308 5.39443e-07)
(0.0357222 -0.392698 -0.00935459)
(0.14108 -0.383652 0.949963)
(0.153385 -0.364702 -0.949588)
(0.0486415 -0.375228 0.00941275)
(0.0680513 -0.37605 -4.28632e-07)
(0.0486374 -0.375232 -0.009411)
(0.153368 -0.364712 0.949611)
(0.165481 -0.343991 -0.950297)
(0.0615433 -0.356193 0.0094664)
(0.0812808 -0.357268 -8.2281e-07)
(0.0615431 -0.356198 -0.00946589)
(0.165478 -0.343998 0.950323)
(0.177004 -0.321636 -0.952211)
(0.0741062 -0.335841 0.0095324)
(0.0943056 -0.337231 -8.24822e-07)
(0.0741069 -0.335848 -0.00953273)
(0.177007 -0.321644 0.952234)
(0.187397 -0.297786 -0.955482)
(0.0860065 -0.314487 0.00960955)
(0.106889 -0.316272 -7.03906e-07)
(0.0860068 -0.314494 -0.00961026)
(0.187401 -0.297795 0.955499)
(0.195819 -0.272708 -0.960397)
(0.0970348 -0.292431 0.00974487)
(0.118867 -0.294778 -5.78777e-07)
(0.0970339 -0.292437 -0.00974563)
(0.19582 -0.272717 0.960408)
(0.201017 -0.247111 -0.950724)
(0.107281 -0.269515 0.0100354)
(0.130079 -0.272914 -4.60414e-07)
(0.107279 -0.26952 -0.0100361)
(0.201015 -0.24712 0.95073)
(0.0648001 -0.519999 -1.2932)
(-0.0287384 -0.340128 0.0160001)
(-0.0248348 -0.381549 3.86047e-08)
(-0.0287382 -0.340127 -0.0160001)
(0.0648004 -0.519997 1.2932)
(0.0601865 -0.458189 -1.12979)
(-0.0277952 -0.399391 0.0220143)
(-0.0239338 -0.39883 1.09648e-07)
(-0.0277952 -0.39939 -0.0220142)
(0.0601866 -0.458187 1.12979)
(0.0571996 -0.44939 -1.09422)
(-0.0295727 -0.41002 0.0164225)
(-0.0268429 -0.40401 1.83882e-07)
(-0.0295728 -0.410019 -0.0164222)
(0.0571997 -0.449388 1.09422)
(0.0542093 -0.441452 -1.05977)
(-0.031847 -0.417443 0.013324)
(-0.0298214 -0.412617 2.55697e-07)
(-0.0318471 -0.417442 -0.0133236)
(0.0542094 -0.441449 1.05977)
(0.0511681 -0.436487 -1.03302)
(-0.0338918 -0.421185 0.011803)
(-0.0319993 -0.418161 2.87373e-07)
(-0.0338918 -0.421183 -0.0118028)
(0.0511688 -0.436483 1.03302)
(0.048289 -0.434135 -1.01102)
(-0.0357535 -0.423625 0.0109084)
(-0.0337794 -0.421825 1.40529e-07)
(-0.035753 -0.423623 -0.0109087)
(0.0482924 -0.43413 1.01102)
(0.0456466 -0.433241 -0.992386)
(-0.0374808 -0.425635 0.0103479)
(-0.0353846 -0.424575 -2.44399e-07)
(-0.0374795 -0.425634 -0.0103495)
(0.0456544 -0.433235 0.992389)
(0.0432031 -0.433286 -0.976199)
(-0.0391128 -0.42757 0.00998132)
(-0.0369069 -0.426949 -5.75684e-07)
(-0.0391119 -0.427572 -0.00998541)
(0.0432172 -0.433278 0.976207)
(0.0408832 -0.434018 -0.96188)
(-0.0406769 -0.429617 0.00972089)
(-0.0383898 -0.429255 3.17691e-07)
(-0.0406837 -0.429621 -0.00973077)
(0.0409161 -0.434015 0.961894)
(0.0386825 -0.435296 -0.948944)
(-0.0422162 -0.431857 0.00953124)
(-0.0398698 -0.431652 6.11802e-07)
(-0.0422235 -0.431859 -0.00954337)
(0.0387208 -0.435317 0.948962)
(0.0365945 -0.437049 -0.937007)
(-0.0437441 -0.434311 0.00939607)
(-0.0413486 -0.434207 -3.00299e-06)
(-0.0437323 -0.434312 -0.00939712)
(0.036596 -0.437088 0.937017)
(0.0345796 -0.439197 -0.925864)
(-0.0452176 -0.43699 0.00928627)
(-0.0427869 -0.436949 -5.61561e-06)
(-0.0451937 -0.436997 -0.00927945)
(0.0345518 -0.439228 0.92587)
(0.0326788 -0.44165 -0.915295)
(-0.0466052 -0.439882 0.00919204)
(-0.0441539 -0.439872 -4.93551e-06)
(-0.0465844 -0.439891 -0.00918748)
(0.0326415 -0.441678 0.915302)
(0.0309528 -0.444359 -0.905432)
(-0.0478532 -0.442936 0.00911445)
(-0.0453862 -0.44294 -6.1841e-06)
(-0.0478323 -0.442944 -0.00910603)
(0.0308876 -0.444377 0.905433)
(0.0294361 -0.447246 -0.895843)
(-0.0488629 -0.446097 0.00903587)
(-0.0463901 -0.446112 -4.62489e-06)
(-0.048855 -0.44611 -0.00902915)
(0.0293669 -0.447236 0.895838)
(0.0282275 -0.450196 -0.886657)
(-0.0495568 -0.449307 0.00895876)
(-0.0470866 -0.449321 1.37921e-06)
(-0.0495819 -0.449313 -0.00896226)
(0.0281939 -0.450184 0.886655)
(0.0274537 -0.453115 -0.877806)
(-0.0498425 -0.452477 0.00888821)
(-0.0473605 -0.45248 1.74456e-06)
(-0.0498698 -0.452465 -0.0088881)
(0.0274055 -0.453124 0.877801)
(0.0272324 -0.455904 -0.869199)
(-0.049609 -0.455505 0.0088248)
(-0.0471069 -0.455497 -1.5224e-06)
(-0.0496144 -0.455479 -0.00881268)
(0.0271398 -0.455913 0.869189)
(0.0276873 -0.458462 -0.860945)
(-0.0487367 -0.458265 0.00876363)
(-0.046205 -0.458247 -5.79475e-06)
(-0.0487115 -0.458232 -0.00873933)
(0.0275526 -0.458433 0.860934)
(0.0288885 -0.460654 -0.852869)
(-0.0470665 -0.46063 0.00869109)
(-0.0445079 -0.460605 -6.80493e-06)
(-0.0470251 -0.460603 -0.00866434)
(0.0287602 -0.460552 0.852866)
(0.0309387 -0.462289 -0.845118)
(-0.0444729 -0.462476 0.00860915)
(-0.0419043 -0.462442 9.39593e-07)
(-0.044462 -0.462452 -0.00859903)
(0.0309232 -0.462147 0.84514)
(0.0340319 -0.46319 -0.837677)
(-0.0408694 -0.46366 0.00852977)
(-0.0382758 -0.463615 5.35002e-06)
(-0.0408724 -0.463627 -0.00853099)
(0.034104 -0.463078 0.837721)
(0.038319 -0.463237 -0.83055)
(-0.036167 -0.46402 0.00846437)
(-0.0335299 -0.463973 3.50339e-06)
(-0.0361475 -0.46399 -0.00846474)
(0.0384097 -0.463153 0.830604)
(0.0438522 -0.462304 -0.823781)
(-0.0302518 -0.463388 0.00840237)
(-0.0275753 -0.463348 4.68311e-06)
(-0.0302317 -0.463376 -0.00840532)
(0.0439848 -0.462232 0.82384)
(0.0506592 -0.460211 -0.817406)
(-0.0230215 -0.46163 0.00832942)
(-0.0203153 -0.461596 8.89893e-06)
(-0.023019 -0.461632 -0.00833787)
(0.0508412 -0.460179 0.817465)
(0.0588163 -0.45679 -0.811456)
(-0.01446 -0.458626 0.00825602)
(-0.0117174 -0.458596 9.71916e-06)
(-0.0144641 -0.458635 -0.00826212)
(0.0589974 -0.45682 0.811505)
(0.0683599 -0.451921 -0.805997)
(-0.00457996 -0.454252 0.0081853)
(-0.00179605 -0.454239 9.25287e-06)
(-0.00458986 -0.454267 -0.00818654)
(0.0684989 -0.452002 0.806028)
(0.0792698 -0.445527 -0.801075)
(0.00657169 -0.448423 0.00812008)
(0.00941234 -0.448487 6.5553e-06)
(0.00656647 -0.448439 -0.00811494)
(0.0793292 -0.445626 0.801085)
(0.0914336 -0.437547 -0.796704)
(0.018949 -0.441103 0.00810658)
(0.0218865 -0.441199 3.18984e-06)
(0.0189448 -0.441124 -0.0080984)
(0.0914399 -0.437624 0.796704)
(0.104711 -0.427865 -0.792919)
(0.0324869 -0.432175 0.00808516)
(0.035543 -0.432277 3.74464e-06)
(0.0324734 -0.432197 -0.00808081)
(0.104711 -0.427919 0.792919)
(0.118964 -0.416431 -0.789837)
(0.046943 -0.421593 0.00808063)
(0.05013 -0.421783 2.91259e-06)
(0.046928 -0.421609 -0.00807802)
(0.118956 -0.416477 0.789839)
(0.133966 -0.403299 -0.787519)
(0.0621027 -0.409454 0.00809828)
(0.0654378 -0.409762 1.69951e-06)
(0.0620915 -0.409465 -0.0080964)
(0.133953 -0.403334 0.787525)
(0.149411 -0.388526 -0.786058)
(0.0777106 -0.395837 0.00813944)
(0.081225 -0.396288 6.55253e-07)
(0.0777037 -0.395846 -0.00813828)
(0.149397 -0.388551 0.786067)
(0.164936 -0.372191 -0.785538)
(0.0934611 -0.380857 0.00820759)
(0.0971993 -0.381488 -6.94686e-08)
(0.093458 -0.380865 -0.00820724)
(0.164926 -0.372208 0.78555)
(0.180122 -0.354392 -0.786111)
(0.109001 -0.364671 0.00830439)
(0.113032 -0.36554 -5.00744e-07)
(0.109001 -0.364679 -0.0083048)
(0.180118 -0.354405 0.786124)
(0.194501 -0.335237 -0.78796)
(0.123928 -0.347478 0.00843378)
(0.128353 -0.348667 -6.88588e-07)
(0.123927 -0.347486 -0.00843465)
(0.1945 -0.335249 0.787973)
(0.207507 -0.314793 -0.791312)
(0.13782 -0.329545 0.00859502)
(0.142797 -0.331164 -7.11063e-07)
(0.13782 -0.329553 -0.00859602)
(0.207508 -0.314804 0.791322)
(0.218425 -0.293215 -0.79655)
(0.150305 -0.311117 0.00884378)
(0.156033 -0.313352 -6.16027e-07)
(0.150305 -0.311124 -0.00884467)
(0.218425 -0.293227 0.796557)
(0.226345 -0.271038 -0.789459)
(0.161145 -0.291966 0.00927736)
(0.167714 -0.29529 -4.76196e-07)
(0.161144 -0.291972 -0.00927806)
(0.226344 -0.271049 0.789463)
(0.0444158 -0.517017 -1.18507)
(-0.0166009 -0.344834 0.0135958)
(-0.0172943 -0.381139 3.42504e-08)
(-0.0166006 -0.344833 -0.0135958)
(0.0444163 -0.517016 1.18507)
(0.0413916 -0.456695 -1.02847)
(-0.016247 -0.401375 0.0187521)
(-0.0173182 -0.400132 9.75167e-08)
(-0.0162468 -0.401374 -0.0187519)
(0.041392 -0.456694 1.02847)
(0.0390108 -0.448296 -0.992154)
(-0.0175991 -0.412049 0.0130138)
(-0.019734 -0.406312 1.82125e-07)
(-0.0175988 -0.412048 -0.0130135)
(0.0390114 -0.448295 0.992152)
(0.0364459 -0.441405 -0.958009)
(-0.0195775 -0.419409 0.0100103)
(-0.022237 -0.415155 2.83395e-07)
(-0.0195771 -0.419408 -0.0100099)
(0.0364468 -0.441403 0.958007)
(0.0336884 -0.437411 -0.931364)
(-0.0216222 -0.42334 0.00861481)
(-0.024385 -0.420827 3.69949e-07)
(-0.0216214 -0.423339 -0.00861431)
(0.0336901 -0.437408 0.931362)
(0.0309422 -0.435692 -0.909455)
(-0.0236606 -0.42595 0.00783658)
(-0.0263703 -0.424527 3.31014e-07)
(-0.0236592 -0.425949 -0.00783625)
(0.0309456 -0.435689 0.909454)
(0.0282995 -0.435164 -0.890952)
(-0.0256664 -0.428036 0.00736968)
(-0.0282877 -0.427232 9.24706e-08)
(-0.0256642 -0.428035 -0.00736992)
(0.0283055 -0.435162 0.890952)
(0.0257623 -0.435364 -0.874936)
(-0.0276397 -0.429944 0.00707595)
(-0.030177 -0.429489 -2.31403e-07)
(-0.0276369 -0.429945 -0.00707708)
(0.0257718 -0.435363 0.874937)
(0.0233046 -0.436092 -0.86084)
(-0.0295872 -0.431861 0.00687799)
(-0.0320567 -0.431603 -4.68435e-07)
(-0.0295852 -0.431863 -0.00688027)
(0.0233197 -0.436095 0.860844)
(0.0209242 -0.437248 -0.848144)
(-0.031517 -0.433874 0.00673724)
(-0.0339341 -0.433732 -5.30882e-07)
(-0.0315156 -0.433877 -0.00673924)
(0.0209398 -0.437258 0.848148)
(0.0186235 -0.438765 -0.836486)
(-0.0334157 -0.436024 0.00663383)
(-0.0357926 -0.435955 -2.2351e-07)
(-0.0334118 -0.43603 -0.00663324)
(0.0186255 -0.438781 0.836487)
(0.0164143 -0.440579 -0.825673)
(-0.0352453 -0.438333 0.00655292)
(-0.0375929 -0.438306 -2.70485e-09)
(-0.0352406 -0.43834 -0.00655013)
(0.0164022 -0.440597 0.825673)
(0.0143446 -0.442632 -0.815471)
(-0.0369542 -0.440792 0.00648498)
(-0.0392815 -0.440785 -1.25065e-07)
(-0.0369529 -0.440799 -0.00648132)
(0.0143241 -0.442649 0.815469)
(0.012488 -0.444876 -0.805986)
(-0.0384718 -0.443366 0.00642601)
(-0.040782 -0.443369 6.91033e-08)
(-0.0384733 -0.443372 -0.00642157)
(0.0124544 -0.444888 0.805983)
(0.0109211 -0.447248 -0.796805)
(-0.039698 -0.446012 0.00637107)
(-0.0419954 -0.446021 4.74093e-07)
(-0.039705 -0.446015 -0.00636684)
(0.0108825 -0.447249 0.796801)
(0.0097558 -0.449666 -0.788045)
(-0.0405276 -0.448676 0.00632023)
(-0.0428146 -0.448686 1.0684e-06)
(-0.0405433 -0.448675 -0.00631699)
(0.00972368 -0.449661 0.788041)
(0.00912306 -0.452052 -0.779628)
(-0.0408388 -0.451286 0.00627277)
(-0.0431115 -0.451293 1.63727e-06)
(-0.0408561 -0.451277 -0.00626837)
(0.00908528 -0.452043 0.779623)
(0.00916039 -0.454313 -0.771461)
(-0.040497 -0.453759 0.00622815)
(-0.0427523 -0.453762 1.87645e-06)
(-0.04051 -0.453743 -0.00622098)
(0.00910994 -0.454294 0.771455)
(0.0100092 -0.456352 -0.763636)
(-0.03936 -0.455999 0.00618572)
(-0.0415954 -0.455996 1.81634e-06)
(-0.0393652 -0.455975 -0.00617619)
(0.00995101 -0.456313 0.76363)
(0.0118012 -0.458058 -0.755988)
(-0.0372745 -0.457899 0.0061421)
(-0.0394879 -0.45789 1.84196e-06)
(-0.0372719 -0.457869 -0.00613283)
(0.0117556 -0.457993 0.755986)
(0.0146784 -0.459294 -0.74865)
(-0.0340976 -0.459346 0.00609817)
(-0.0362888 -0.459334 2.1895e-06)
(-0.0340934 -0.459314 -0.00609268)
(0.0146771 -0.459215 0.748656)
(0.0187973 -0.45993 -0.741593)
(-0.0296976 -0.460219 0.00605651)
(-0.0318625 -0.460208 2.34514e-06)
(-0.0296888 -0.460187 -0.00605461)
(0.018837 -0.459858 0.741608)
(0.0242953 -0.459841 -0.734811)
(-0.0239564 -0.460391 0.00601924)
(-0.0260906 -0.460387 2.13539e-06)
(-0.0239381 -0.460366 -0.00601908)
(0.024357 -0.459783 0.73483)
(0.031265 -0.4589 -0.728341)
(-0.0167686 -0.459736 0.0059856)
(-0.0188724 -0.459743 2.28879e-06)
(-0.0167463 -0.459721 -0.00598704)
(0.031348 -0.458859 0.728362)
(0.0397701 -0.456977 -0.722215)
(-0.00805434 -0.458135 0.00595432)
(-0.0101274 -0.458155 2.82134e-06)
(-0.00803455 -0.458131 -0.00595685)
(0.0398712 -0.456962 0.722235)