/*--------------------------------*- C++ -*----------------------------------*\
  =========                 |
  \\      /  F ield         | OpenFOAM: The Open Source CFD Toolbox
   \\    /   O peration     | Website:  https://openfoam.org
    \\  /    A nd           | Version:  9
     \\/     M anipulation  |
\*---------------------------------------------------------------------------*/
FoamFile
{
    format      ascii;
    class       surfaceScalarField;
    location    "0.5";
    object      phi;
}
// * * * * * * * * * * * * * * * * * * * * * * * * * * * * * * * * * * * * * //

dimensions      [0 3 -1 0 0 0 0];

internalField   nonuniform List<scalar> 
104044
(
-3.02796e-11
-3.54214e-05
-2.84729e-09
3.54151e-05
9.18172e-09
-3.54216e-05
-2.82206e-09
-4.64396e-13
3.54152e-05
9.1498e-09
3.29107e-11
-4.09515e-09
1.05684e-08
-4.13321e-09
1.94201e-12
1.05955e-08
-2.06803e-11
-1.24852e-05
1.24824e-05
-1.24852e-05
-1.20089e-12
1.24824e-05
3.13587e-11
2.30042e-12
6.384e-13
-3.54216e-05
-2.81659e-09
3.54152e-05
9.14397e-09
-3.54216e-05
-2.81669e-09
2.23459e-13
3.54153e-05
9.14415e-09
-1.59406e-13
-4.13773e-09
1.06075e-08
-4.13899e-09
-1.91592e-14
1.06111e-08
2.65424e-13
-1.24852e-05
1.24824e-05
-1.24852e-05
2.62046e-13
1.24824e-05
-2.18799e-14
1.44521e-14
3.88513e-14
-3.54216e-05
-2.81741e-09
3.54153e-05
9.14572e-09
-3.54216e-05
-2.81803e-09
-1.38102e-13
3.54153e-05
9.14763e-09
7.80869e-14
-4.13978e-09
1.06133e-08
-4.14066e-09
1.6428e-13
1.06155e-08
7.76641e-14
-1.24853e-05
1.24824e-05
-1.24853e-05
-9.60394e-14
1.24824e-05
1.01412e-13
1.87174e-13
-5.06818e-13
-3.54216e-05
-2.81855e-09
3.54153e-05
9.1497e-09
-3.54216e-05
-2.81945e-09
5.72393e-13
3.54153e-05
9.15258e-09
3.08858e-13
-4.14158e-09
1.06175e-08
-4.14176e-09
-1.81626e-12
1.06174e-08
-1.4148e-13
-1.24853e-05
1.24824e-05
-1.24852e-05
1.30879e-12
1.24824e-05
1.8354e-13
-2.17512e-12
3.0358e-11
-3.54216e-05
-2.82571e-09
3.54152e-05
9.16065e-09
-3.54215e-05
-2.85137e-09
3.54152e-05
9.19378e-09
-3.28982e-11
-4.13831e-09
1.06081e-08
-4.10076e-09
1.05824e-08
2.07469e-11
-1.24853e-05
1.24824e-05
-1.24852e-05
1.24824e-05
-3.13263e-11
-6.31817e-12
-3.54086e-05
-2.68067e-09
3.54011e-05
1.02421e-08
-3.54087e-05
-2.68593e-09
-8.91068e-13
3.54011e-05
1.02437e-08
-1.05386e-11
-2.44019e-09
8.93295e-09
-2.44352e-09
1.24226e-12
8.92886e-09
-2.5213e-12
-1.24799e-05
1.24772e-05
-1.248e-05
-1.04905e-12
1.24773e-05
-7.25169e-12
2.68791e-13
2.14356e-13
-3.54087e-05
-2.68542e-09
3.54012e-05
1.02461e-08
-3.54088e-05
-2.68658e-09
2.05399e-13
3.54012e-05
1.0248e-08
1.34524e-12
-2.44604e-09
8.93253e-09
-2.4487e-09
3.45109e-13
8.93576e-09
7.1113e-14
-1.248e-05
1.24773e-05
-1.248e-05
2.23371e-13
1.24773e-05
1.0056e-12
3.57614e-13
5.29173e-14
-3.54088e-05
-2.68726e-09
3.54012e-05
1.02494e-08
-3.54088e-05
-2.68764e-09
-9.41704e-14
3.54012e-05
1.02507e-08
3.84997e-14
-2.44997e-09
8.93795e-09
-2.45045e-09
-2.80967e-13
8.93954e-09
7.98991e-14
-1.248e-05
1.24773e-05
-1.248e-05
-5.35431e-14
1.24773e-05
6.9004e-14
-2.3424e-13
-1.44766e-13
-3.54088e-05
-2.6877e-09
3.54012e-05
1.02518e-08
-3.54088e-05
-2.68715e-09
9.3049e-13
3.54012e-05
1.0252e-08
-1.26462e-12
-2.45011e-09
8.94038e-09
-2.44823e-09
-1.17729e-12
8.93972e-09
3.19878e-14
-1.248e-05
1.24773e-05
-1.248e-05
1.11084e-12
1.24773e-05
-8.70746e-13
-1.84987e-13
6.35256e-12
-3.54087e-05
-2.68812e-09
3.54012e-05
1.02511e-08
-3.54087e-05
-2.68314e-09
3.54011e-05
1.02502e-08
1.0569e-11
-2.44627e-09
8.9379e-09
-2.44325e-09
8.94296e-09
2.56233e-12
-1.248e-05
1.24773e-05
-1.24799e-05
1.24772e-05
7.32527e-12
-6.2544e-12
-3.53919e-05
-4.14332e-09
3.53802e-05
1.57962e-08
-3.53919e-05
-4.14774e-09
-1.32433e-12
3.53803e-05
1.57943e-08
-6.37401e-12
-3.24182e-09
1.2457e-08
-3.24511e-09
-1.29902e-12
1.24561e-08
-1.13361e-13
-1.2474e-05
1.24699e-05
-1.2474e-05
-2.28829e-12
1.24699e-05
-1.40234e-12
-2.09494e-12
-3.8812e-13
-3.5392e-05
-4.14401e-09
3.53803e-05
1.57949e-08
-3.5392e-05
-4.14452e-09
-5.60474e-14
3.53804e-05
1.57954e-08
-1.74022e-13
-3.2422e-09
1.24567e-08
-3.24288e-09
6.65313e-14
1.24576e-08
-6.47098e-13
-1.2474e-05
1.24699e-05
-1.2474e-05
-9.04837e-14
1.24699e-05
-3.47466e-13
4.78904e-14
8.63139e-14
-3.5392e-05
-4.14492e-09
3.53804e-05
1.57961e-08
-3.5392e-05
-4.14513e-09
2.14314e-13
3.53804e-05
1.57968e-08
6.84806e-14
-3.24337e-09
1.24586e-08
-3.24365e-09
5.55016e-14
1.24596e-08
9.51566e-14
-1.24741e-05
1.24699e-05
-1.24741e-05
2.55079e-13
1.24699e-05
8.375e-14
1.00086e-13
5.23671e-13
-3.5392e-05
-4.14509e-09
3.53804e-05
1.57975e-08
-3.5392e-05
-4.14491e-09
1.42655e-12
3.53803e-05
1.57982e-08
2.67491e-13
-3.2437e-09
1.24605e-08
-3.24347e-09
1.37441e-12
1.24612e-08
7.75535e-13
-1.24741e-05
1.24699e-05
-1.2474e-05
2.37552e-12
1.24699e-05
4.62867e-13
2.19553e-12
6.33503e-12
-3.53919e-05
-4.14888e-09
3.53803e-05
1.57984e-08
-3.53919e-05
-4.14466e-09
3.53802e-05
1.58005e-08
6.44426e-12
-3.24672e-09
1.24618e-08
-3.24371e-09
1.24631e-08
1.6997e-13
-1.2474e-05
1.24699e-05
-1.2474e-05
1.24699e-05
1.4556e-12
-7.18722e-12
-3.53659e-05
-6.39119e-09
3.53484e-05
2.39791e-08
-3.5366e-05
-6.39857e-09
-1.46372e-12
3.53484e-05
2.39758e-08
-6.4489e-12
-5.15307e-09
1.94635e-08
-5.15894e-09
-1.34779e-12
1.94611e-08
2.02018e-12
-1.24647e-05
1.24583e-05
-1.24647e-05
-2.51598e-12
1.24583e-05
1.03678e-12
-2.37215e-12
-9.12821e-13
-3.5366e-05
-6.39322e-09
3.53484e-05
2.39764e-08
-3.5366e-05
-6.39318e-09
-4.12009e-13
3.53485e-05
2.39762e-08
-6.24212e-13
-5.15446e-09
1.94617e-08
-5.15465e-09
-1.97652e-13
1.94617e-08
-1.39535e-12
-1.24647e-05
1.24583e-05
-1.24647e-05
-4.15025e-13
1.24584e-05
-1.01737e-12
-2.36132e-13
6.52123e-14
-3.53661e-05
-6.39345e-09
3.53485e-05
2.39763e-08
-3.53661e-05
-6.39353e-09
5.50351e-13
3.53485e-05
2.39765e-08
7.92112e-14
-5.15498e-09
1.94621e-08
-5.15511e-09
3.45953e-13
1.94626e-08
6.34304e-14
-1.24648e-05
1.24584e-05
-1.24648e-05
5.32566e-13
1.24584e-05
8.58598e-14
3.92471e-13
1.01174e-12
-3.5366e-05
-6.39337e-09
3.53485e-05
2.3977e-08
-3.5366e-05
-6.39353e-09
1.50477e-12
3.53484e-05
2.39777e-08
7.59043e-13
-5.15501e-09
1.94631e-08
-5.15503e-09
1.47554e-12
1.94638e-08
1.49934e-12
-1.24647e-05
1.24584e-05
-1.24647e-05
2.58333e-12
1.24583e-05
1.16544e-12
2.46806e-12
7.26665e-12
-3.5366e-05
-6.399e-09
3.53484e-05
2.39774e-08
-3.53659e-05
-6.39173e-09
3.53484e-05
2.39808e-08
6.52534e-12
-5.15965e-09
1.94638e-08
-5.15398e-09
1.94663e-08
-1.97485e-12
-1.24647e-05
1.24583e-05
-1.24647e-05
1.24583e-05
-9.93864e-13
-8.95581e-12
-3.53276e-05
-8.99134e-09
3.53031e-05
3.35001e-08
-3.53276e-05
-9.00192e-09
-1.48114e-12
3.53031e-05
3.34953e-08
-7.94321e-12
-7.58563e-09
2.83345e-08
-7.59448e-09
-1.48632e-12
2.83305e-08
3.84218e-12
-1.24507e-05
1.24417e-05
-1.24507e-05
-2.65897e-12
1.24417e-05
2.88197e-12
-2.5675e-12
-1.3173e-12
-3.53277e-05
-8.99486e-09
3.53032e-05
3.34962e-08
-3.53277e-05
-8.99459e-09
-7.8551e-13
3.53032e-05
3.34956e-08
-1.17212e-12
-7.58834e-09
2.83313e-08
-7.58817e-09
-6.38176e-13
2.83308e-08
-1.8132e-12
-1.24507e-05
1.24418e-05
-1.24508e-05
-7.30607e-13
1.24418e-05
-1.61539e-12
-5.72572e-13
3.63634e-14
-3.53277e-05
-8.99478e-09
3.53032e-05
3.34954e-08
-3.53277e-05
-8.99479e-09
8.58272e-13
3.53032e-05
3.34955e-08
4.68003e-14
-7.5884e-09
2.83308e-08
-7.58844e-09
7.28292e-13
2.83309e-08
3.15227e-14
-1.24508e-05
1.24418e-05
-1.24508e-05
7.93016e-13
1.24418e-05
4.45084e-14
6.52603e-13
1.37835e-12
-3.53277e-05
-8.99462e-09
3.53032e-05
3.34958e-08
-3.53277e-05
-8.99491e-09
1.52091e-12
3.53032e-05
3.34965e-08
1.23834e-12
-7.58826e-09
2.83312e-08
-7.58848e-09
1.50478e-12
2.83319e-08
1.86185e-12
-1.24508e-05
1.24418e-05
-1.24508e-05
2.69129e-12
1.24418e-05
1.67927e-12
2.6039e-12
9.07941e-12
-3.53276e-05
-9.00201e-09
3.53031e-05
3.34956e-08
-3.53276e-05
-8.99148e-09
3.53031e-05
3.35004e-08
7.99804e-12
-7.59468e-09
2.83313e-08
-7.58594e-09
2.83353e-08
-3.80273e-12
-1.24507e-05
1.24417e-05
-1.24507e-05
1.24417e-05
-2.92452e-12
-1.11856e-11
-3.52752e-05
-1.18232e-08
3.52431e-05
4.39446e-08
-3.52752e-05
-1.18371e-08
-1.47311e-12
3.52431e-05
4.39384e-08
-9.96716e-12
-1.02763e-08
3.8226e-08
-1.02884e-08
-1.47021e-12
3.82207e-08
5.60623e-12
-1.24314e-05
1.24196e-05
-1.24315e-05
-2.77665e-12
1.24196e-05
4.63176e-12
-2.69397e-12
-1.49445e-12
-3.52752e-05
-1.18283e-08
3.52431e-05
4.39398e-08
-3.52753e-05
-1.18279e-08
-9.87719e-13
3.52432e-05
4.39391e-08
-1.41042e-12
-1.02805e-08
3.82219e-08
-1.02802e-08
-8.90772e-13
3.82212e-08
-2.08458e-12
-1.24315e-05
1.24196e-05
-1.24315e-05
-9.54957e-13
1.24197e-05
-1.94767e-12
-8.55104e-13
1.9416e-14
-3.52753e-05
-1.1828e-08
3.52432e-05
4.39387e-08
-3.52753e-05
-1.1828e-08
1.0231e-12
3.52432e-05
4.39387e-08
2.74541e-14
-1.02803e-08
3.82209e-08
-1.02803e-08
9.42535e-13
3.82209e-08
2.05715e-14
-1.24315e-05
1.24197e-05
-1.24315e-05
9.90632e-13
1.24197e-05
2.47857e-14
8.97369e-13
1.52426e-12
-3.52753e-05
-1.18279e-08
3.52432e-05
4.39391e-08
-3.52752e-05
-1.18283e-08
1.49712e-12
3.52431e-05
4.39398e-08
1.44771e-12
-1.02802e-08
3.82213e-08
-1.02805e-08
1.48196e-12
3.8222e-08
2.10748e-12
-1.24315e-05
1.24197e-05
-1.24315e-05
2.78274e-12
1.24196e-05
1.97257e-12
2.69836e-12
1.12932e-11
-3.52752e-05
-1.18371e-08
3.52431e-05
4.39383e-08
-3.52752e-05
-1.18232e-08
3.52431e-05
4.39445e-08
1.0006e-11
-1.02884e-08
3.82208e-08
-1.02764e-08
3.8226e-08
-5.56734e-12
-1.24315e-05
1.24196e-05
-1.24314e-05
1.24196e-05
-4.69542e-12
-1.37299e-11
-3.52072e-05
-1.49232e-08
3.51667e-05
5.54181e-08
-3.52072e-05
-1.49407e-08
-1.48453e-12
3.51668e-05
5.54103e-08
-1.2338e-11
-1.32088e-08
4.90645e-08
-1.32242e-08
-1.47311e-12
4.90577e-08
7.37244e-12
-1.24064e-05
1.23915e-05
-1.24064e-05
-2.92402e-12
1.23915e-05
6.38523e-12
-2.82297e-12
-1.59188e-12
-3.52073e-05
-1.49299e-08
3.51668e-05
5.54124e-08
-3.52073e-05
-1.49295e-08
-1.13154e-12
3.51668e-05
5.54116e-08
-1.53817e-12
-1.32146e-08
4.90595e-08
-1.32141e-08
-1.05449e-12
4.90587e-08
-2.29184e-12
-1.24064e-05
1.23915e-05
-1.24064e-05
-1.10072e-12
1.23915e-05
-2.17495e-12
-1.02246e-12
-1.91304e-14
-3.52073e-05
-1.49296e-08
3.51669e-05
5.54111e-08
-3.52073e-05
-1.49296e-08
1.09487e-12
3.51669e-05
5.54111e-08
2.52809e-15
-1.32142e-08
4.90583e-08
-1.32142e-08
1.05489e-12
4.90583e-08
-1.33659e-14
-1.24064e-05
1.23915e-05
-1.24064e-05
1.07162e-12
1.23915e-05
7.33424e-15
1.0291e-12
1.56065e-12
-3.52073e-05
-1.49294e-08
3.51668e-05
5.54115e-08
-3.52073e-05
-1.49299e-08
1.46466e-12
3.51668e-05
5.54123e-08
1.53118e-12
-1.32141e-08
4.90587e-08
-1.32145e-08
1.45607e-12
4.90594e-08
2.26321e-12
-1.24064e-05
1.23915e-05
-1.24064e-05
2.89855e-12
1.23915e-05
2.16612e-12
2.79054e-12
1.38322e-11
-3.52072e-05
-1.49407e-08
3.51668e-05
5.54101e-08
-3.52072e-05
-1.49232e-08
3.51667e-05
5.54179e-08
1.23581e-11
-1.32242e-08
4.90576e-08
-1.32088e-08
4.90643e-08
-7.35726e-12
-1.24064e-05
1.23915e-05
-1.24064e-05
1.23915e-05
-6.44166e-12
-1.66355e-11
-3.51222e-05
-1.83747e-08
3.50723e-05
6.82062e-08
-3.51222e-05
-1.83962e-08
-1.50095e-12
3.50724e-05
6.81967e-08
-1.50312e-11
-1.644e-08
6.10309e-08
-1.64591e-08
-1.49587e-12
6.10226e-08
9.24297e-12
-1.2375e-05
1.23566e-05
-1.2375e-05
-3.15302e-12
1.23566e-05
8.15574e-12
-2.9827e-12
-1.63687e-12
-3.51222e-05
-1.83832e-08
3.50724e-05
6.81995e-08
-3.51223e-05
-1.83827e-08
-1.21335e-12
3.50724e-05
6.81987e-08
-1.61001e-12
-1.64474e-08
6.10251e-08
-1.64469e-08
-1.1717e-12
6.10243e-08
-2.48931e-12
-1.2375e-05
1.23567e-05
-1.23751e-05
-1.19877e-12
1.23567e-05
-2.36728e-12
-1.14713e-12
-1.62796e-14
-3.51223e-05
-1.83829e-08
3.50725e-05
6.81983e-08
-3.51223e-05
-1.83829e-08
1.18335e-12
3.50725e-05
6.81982e-08
-2.78313e-14
-1.6447e-08
6.10238e-08
-1.6447e-08
1.11663e-12
6.10238e-08
-2.81972e-14
-1.23751e-05
1.23567e-05
-1.23751e-05
1.1425e-12
1.23567e-05
-2.83259e-14
1.08757e-12
1.6101e-12
-3.51223e-05
-1.83827e-08
3.50724e-05
6.81987e-08
-3.51222e-05
-1.83832e-08
1.48248e-12
3.50724e-05
6.81995e-08
1.55505e-12
-1.64469e-08
6.10242e-08
-1.64474e-08
1.43762e-12
6.1025e-08
2.43673e-12
-1.23751e-05
1.23567e-05
-1.2375e-05
3.10262e-12
1.23567e-05
2.31301e-12
2.94585e-12
1.67293e-11
-3.51222e-05
-1.83962e-08
3.50724e-05
6.81966e-08
-3.51222e-05
-1.83748e-08
3.50724e-05
6.8206e-08
1.504e-11
-1.64591e-08
6.10225e-08
-1.644e-08
6.10307e-08
-9.23485e-12
-1.2375e-05
1.23566e-05
-1.2375e-05
1.23566e-05
-8.25271e-12
-1.98806e-11
-3.5018e-05
-2.22512e-08
3.49577e-05
8.25709e-08
-3.5018e-05
-2.22772e-08
-1.52027e-12
3.49577e-05
8.25596e-08
-1.80536e-11
-2.00519e-08
7.44136e-08
-2.00752e-08
-1.51046e-12
7.44036e-08
1.13457e-11
-1.23366e-05
1.23143e-05
-1.23366e-05
-3.48338e-12
1.23143e-05
1.00984e-11
-3.29322e-12
-1.66154e-12
-3.50181e-05
-2.22617e-08
3.49577e-05
8.25631e-08
-3.50181e-05
-2.22611e-08
-1.26296e-12
3.49578e-05
8.25624e-08
-1.64078e-12
-2.00611e-08
7.44068e-08
-2.00606e-08
-1.23051e-12
7.4406e-08
-2.68711e-12
-1.23366e-05
1.23143e-05
-1.23366e-05
-1.24275e-12
1.23143e-05
-2.57081e-12
-1.21703e-12
1.75884e-14
-3.50181e-05
-2.22614e-08
3.49578e-05
8.25619e-08
-3.50181e-05
-2.22614e-08
1.29718e-12
3.49578e-05
8.25619e-08
-2.09219e-15
-2.00608e-08
7.44055e-08
-2.00608e-08
1.22584e-12
7.44055e-08
2.67151e-15
-1.23366e-05
1.23144e-05
-1.23366e-05
1.24693e-12
1.23144e-05
-1.9472e-14
1.17786e-12
1.68778e-12
-3.50181e-05
-2.22611e-08
3.49578e-05
8.25623e-08
-3.50181e-05
-2.22617e-08
1.53283e-12
3.49578e-05
8.25631e-08
1.6312e-12
-2.00606e-08
7.4406e-08
-2.00611e-08
1.49043e-12
7.44067e-08
2.68691e-12
-1.23366e-05
1.23144e-05
-1.23366e-05
3.46881e-12
1.23143e-05
2.52782e-12
3.23631e-12
1.9942e-11
-3.5018e-05
-2.22772e-08
3.49577e-05
8.25595e-08
-3.5018e-05
-2.22513e-08
3.49577e-05
8.25707e-08
1.8072e-11
-2.00752e-08
7.44035e-08
-2.0052e-08
7.44133e-08
-1.13213e-11
-1.23366e-05
1.23143e-05
-1.23366e-05
1.23143e-05
-1.01925e-11
-2.33939e-11
-3.48923e-05
-2.66128e-08
3.48202e-05
9.87323e-08
-3.48923e-05
-2.66439e-08
-1.51013e-12
3.48202e-05
9.87191e-08
-2.13592e-11
-2.41261e-08
8.95093e-08
-2.41541e-08
-1.50763e-12
8.94976e-08
1.37404e-11
-1.22902e-05
1.22635e-05
-1.22902e-05
-3.82486e-12
1.22636e-05
1.2372e-11
-3.60883e-12
-1.67224e-12
-3.48924e-05
-2.66255e-08
3.48203e-05
9.87234e-08
-3.48924e-05
-2.66249e-08
-1.32241e-12
3.48203e-05
9.87227e-08
-1.65453e-12
-2.41374e-08
8.95015e-08
-2.41368e-08
-1.27973e-12
8.95007e-08
-2.87528e-12
-1.22902e-05
1.22636e-05
-1.22902e-05
-1.25918e-12
1.22636e-05
-2.75369e-12
-1.24006e-12
2.58969e-14
-3.48924e-05
-2.66253e-08
3.48203e-05
9.87222e-08
-3.48924e-05
-2.66253e-08
1.36793e-12
3.48203e-05
9.87222e-08
2.58157e-14
-2.41372e-08
8.95003e-08
-2.41372e-08
1.32738e-12
8.95003e-08
3.86772e-14
-1.22902e-05
1.22636e-05
-1.22902e-05
1.33131e-12
1.22636e-05
2.20761e-14
1.28276e-12
1.70378e-12
-3.48924e-05
-2.66249e-08
3.48203e-05
9.87226e-08
-3.48924e-05
-2.66255e-08
1.51728e-12
3.48203e-05
9.87234e-08
1.69188e-12
-2.41368e-08
8.95007e-08
-2.41374e-08
1.52594e-12
8.95014e-08
2.92834e-12
-1.22902e-05
1.22636e-05
-1.22902e-05
3.83932e-12
1.22636e-05
2.78362e-12
3.61727e-12
2.3432e-11
-3.48924e-05
-2.66439e-08
3.48203e-05
9.87191e-08
-3.48923e-05
-2.66129e-08
3.48202e-05
9.87321e-08
2.13995e-11
-2.41542e-08
8.94976e-08
-2.41263e-08
8.95091e-08
-1.37276e-11
-1.22902e-05
1.22636e-05
-1.22902e-05
1.22635e-05
-1.23939e-11
-2.72494e-11
-3.47425e-05
-3.154e-08
3.4657e-05
1.16991e-07
-3.47425e-05
-3.15768e-08
-1.42513e-12
3.4657e-05
1.16975e-07
-2.49852e-11
-2.87218e-08
1.06537e-07
-2.87551e-08
-1.45341e-12
1.06523e-07
1.64819e-11
-1.22348e-05
1.22032e-05
-1.22348e-05
-4.15431e-12
1.22033e-05
1.49798e-11
-3.91884e-12
-1.63885e-12
-3.47425e-05
-3.15551e-08
3.46571e-05
1.1698e-07
-3.47425e-05
-3.15546e-08
-1.3699e-12
3.46571e-05
1.1698e-07
-1.63653e-12
-2.87353e-08
1.06528e-07
-2.87347e-08
-1.32808e-12
1.06527e-07
-3.05023e-12
-1.22348e-05
1.22033e-05
-1.22348e-05
-1.27015e-12
1.22033e-05
-2.92067e-12
-1.24052e-12
1.47818e-14
-3.47426e-05
-3.15551e-08
3.46571e-05
1.16979e-07
-3.47426e-05
-3.15551e-08
1.39271e-12
3.46571e-05
1.16979e-07
2.91621e-14
-2.87352e-08
1.06527e-07
-2.87352e-08
1.38044e-12
1.06527e-07
4.20827e-14
-1.22349e-05
1.22033e-05
-1.22349e-05
1.3469e-12
1.22033e-05
5.42331e-14
1.3434e-12
1.64777e-12
-3.47425e-05
-3.15546e-08
3.46571e-05
1.1698e-07
-3.47425e-05
-3.15552e-08
1.41574e-12
3.46571e-05
1.1698e-07
1.67634e-12
-2.87347e-08
1.06527e-07
-2.87353e-08
1.47082e-12
1.06528e-07
3.10294e-12
-1.22348e-05
1.22033e-05
-1.22348e-05
4.16466e-12
1.22033e-05
3.00408e-12
3.97975e-12
2.72919e-11
-3.47425e-05
-3.15768e-08
3.4657e-05
1.16975e-07
-3.47425e-05
-3.15401e-08
3.4657e-05
1.1699e-07
2.50304e-11
-2.87551e-08
1.06523e-07
-2.8722e-08
1.06536e-07
-1.64766e-11
-1.22348e-05
1.22033e-05
-1.22348e-05
1.22033e-05
-1.49247e-11
-3.1498e-11
-3.45652e-05
-3.70667e-08
3.44649e-05
1.37475e-07
-3.45652e-05
-3.71099e-08
-1.27736e-12
3.44649e-05
1.37457e-07
-2.90265e-11
-3.38988e-08
1.25721e-07
-3.39381e-08
-1.3384e-12
1.25705e-07
1.95411e-11
-1.21693e-05
1.21322e-05
-1.21693e-05
-4.48756e-12
1.21323e-05
1.78276e-11
-4.25786e-12
-1.56962e-12
-3.45653e-05
-3.70846e-08
3.44649e-05
1.37463e-07
-3.45653e-05
-3.70841e-08
-1.40942e-12
3.44649e-05
1.37463e-07
-1.58666e-12
-3.39149e-08
1.2571e-07
-3.39143e-08
-1.37327e-12
1.2571e-07
-3.23587e-12
-1.21694e-05
1.21323e-05
-1.21694e-05
-1.31828e-12
1.21323e-05
-3.10563e-12
-1.2749e-12
-2.17929e-14
-3.45653e-05
-3.70848e-08
3.4465e-05
1.37462e-07
-3.45653e-05
-3.70848e-08
1.36764e-12
3.4465e-05
1.37462e-07
1.80461e-15
-3.39149e-08
1.25709e-07
-3.39149e-08
1.36947e-12
1.25709e-07
-2.3654e-14
-1.21694e-05
1.21323e-05
-1.21694e-05
1.26956e-12
1.21323e-05
1.69983e-14
1.30272e-12
1.52612e-12
-3.45653e-05
-3.70841e-08
3.44649e-05
1.37463e-07
-3.45653e-05
-3.70846e-08
1.24699e-12
3.44649e-05
1.37463e-07
1.57391e-12
-3.39143e-08
1.2571e-07
-3.39149e-08
1.31706e-12
1.2571e-07
3.18405e-12
-1.21694e-05
1.21323e-05
-1.21694e-05
4.43242e-12
1.21323e-05
3.11909e-12
4.25881e-12
3.1587e-11
-3.45652e-05
-3.71099e-08
3.44649e-05
1.37457e-07
-3.45652e-05
-3.70668e-08
3.44649e-05
1.37475e-07
2.90486e-11
-3.3938e-08
1.25705e-07
-3.3899e-08
1.2572e-07
-1.95389e-11
-1.21693e-05
1.21323e-05
-1.21693e-05
1.21322e-05
-1.78242e-11
-3.62901e-11
-3.43574e-05
-4.32845e-08
3.42402e-05
1.60531e-07
-3.43574e-05
-4.33347e-08
-1.12993e-12
3.42402e-05
1.60511e-07
-3.35336e-11
-3.96924e-08
1.47195e-07
-3.97381e-08
-1.21474e-12
1.47177e-07
2.29259e-11
-1.20925e-05
1.20492e-05
-1.20925e-05
-4.86403e-12
1.20492e-05
2.0895e-11
-4.64989e-12
-1.4908e-12
-3.43574e-05
-4.33055e-08
3.42402e-05
1.60518e-07
-3.43575e-05
-4.3305e-08
-1.43412e-12
3.42402e-05
1.60518e-07
-1.52729e-12
-3.97112e-08
1.47184e-07
-3.97107e-08
-1.41727e-12
1.47183e-07
-3.43634e-12
-1.20926e-05
1.20493e-05
-1.20926e-05
-1.36531e-12
1.20493e-05
-3.3181e-12
-1.34122e-12
-4.04862e-14
-3.43575e-05
-4.33059e-08
3.42403e-05
1.60517e-07
-3.43575e-05
-4.33059e-08
1.36107e-12
3.42403e-05
1.60517e-07
-4.27923e-14
-3.97115e-08
1.47183e-07
-3.97115e-08
1.33524e-12
1.47183e-07
-7.04373e-14
-1.20926e-05
1.20493e-05
-1.20926e-05
1.22576e-12
1.20493e-05
-6.12306e-14
1.2165e-12
1.42892e-12
-3.43575e-05
-4.3305e-08
3.42402e-05
1.60518e-07
-3.43574e-05
-4.33055e-08
1.10469e-12
3.42402e-05
1.60518e-07
1.44485e-12
-3.97107e-08
1.47183e-07
-3.97112e-08
1.14006e-12
1.47184e-07
3.31572e-12
-1.20926e-05
1.20493e-05
-1.20926e-05
4.77228e-12
1.20493e-05
3.19348e-12
4.52177e-12
3.64145e-11
-3.43574e-05
-4.33347e-08
3.42402e-05
1.60511e-07
-3.43574e-05
-4.32846e-08
3.42402e-05
1.60531e-07
3.35235e-11
-3.97381e-08
1.47177e-07
-3.96925e-08
1.47195e-07
-2.29079e-11
-1.20925e-05
1.20492e-05
-1.20925e-05
1.20492e-05
-2.10466e-11
-4.16047e-11
-3.41151e-05
-5.01724e-08
3.39793e-05
1.86088e-07
-3.41151e-05
-5.02303e-08
-9.94259e-13
3.39793e-05
1.86065e-07
-3.8546e-11
-4.61782e-08
1.71249e-07
-4.62311e-08
-1.08293e-12
1.71229e-07
2.65985e-11
-1.2003e-05
1.19528e-05
-1.2003e-05
-5.27496e-12
1.19528e-05
2.43471e-11
-5.05168e-12
-1.39291e-12
-3.41152e-05
-5.01968e-08
3.39793e-05
1.86073e-07
-3.41152e-05
-5.01963e-08
-1.41977e-12
3.39793e-05
1.86073e-07
-1.44394e-12
-4.62002e-08
1.71237e-07
-4.61997e-08
-1.42112e-12
1.71236e-07
-3.62088e-12
-1.20031e-05
1.19529e-05
-1.20031e-05
-1.35482e-12
1.19529e-05
-3.51016e-12
-1.35666e-12
-1.19482e-14
-3.41152e-05
-5.01974e-08
3.39794e-05
1.86073e-07
-3.41152e-05
-5.01974e-08
1.39906e-12
3.39794e-05
1.86073e-07
-3.16347e-14
-4.62006e-08
1.71236e-07
-4.62006e-08
1.36169e-12
1.71236e-07
-3.18102e-14
-1.20031e-05
1.19529e-05
-1.20031e-05
1.29066e-12
1.19529e-05
-6.0728e-14
1.23398e-12
1.37458e-12
-3.41152e-05
-5.01963e-08
3.39793e-05
1.86073e-07
-3.41152e-05
-5.01968e-08
9.92224e-13
3.39793e-05
1.86073e-07
1.38557e-12
-4.61997e-08
1.71236e-07
-4.62002e-08
1.02998e-12
1.71237e-07
3.56666e-12
-1.20031e-05
1.19529e-05
-1.20031e-05
5.23152e-12
1.19529e-05
3.3902e-12
4.92342e-12
4.17067e-11
-3.41151e-05
-5.02303e-08
3.39793e-05
1.86065e-07
-3.41152e-05
-5.01725e-08
3.39793e-05
1.86088e-07
3.85406e-11
-4.62312e-08
1.71229e-07
-4.61783e-08
1.71249e-07
-2.65618e-11
-1.2003e-05
1.19528e-05
-1.2003e-05
1.19528e-05
-2.45229e-11
-4.73195e-11
-3.38348e-05
-5.78091e-08
3.36782e-05
2.1445e-07
-3.38348e-05
-5.78756e-08
-7.66519e-13
3.36782e-05
2.14424e-07
-4.39935e-11
-5.33539e-08
1.97882e-07
-5.34148e-08
-8.91696e-13
1.97859e-07
3.06826e-11
-1.18994e-05
1.18416e-05
-1.18995e-05
-5.67165e-12
1.18416e-05
2.82235e-11
-5.42703e-12
-1.23996e-12
-3.38348e-05
-5.78374e-08
3.36782e-05
2.14434e-07
-3.38348e-05
-5.78369e-08
-1.38519e-12
3.36782e-05
2.14433e-07
-1.30689e-12
-5.33794e-08
1.97868e-07
-5.33789e-08
-1.38427e-12
1.97868e-07
-3.79004e-12
-1.18995e-05
1.18416e-05
-1.18995e-05
-1.32668e-12
1.18416e-05
-3.66706e-12
-1.3214e-12
8.45494e-15
-3.38349e-05
-5.78381e-08
3.36783e-05
2.14433e-07
-3.38349e-05
-5.78381e-08
1.39986e-12
3.36783e-05
2.14433e-07
7.24158e-15
-5.338e-08
1.97867e-07
-5.338e-08
1.39497e-12
1.97867e-07
1.40752e-14
-1.18995e-05
1.18416e-05
-1.18995e-05
1.34805e-12
1.18416e-05
-3.8288e-15
1.3114e-12
1.24735e-12
-3.38348e-05
-5.78369e-08
3.36782e-05
2.14433e-07
-3.38348e-05
-5.78374e-08
7.81631e-13
3.36782e-05
2.14434e-07
1.31379e-12
-5.33789e-08
1.97868e-07
-5.33794e-08
8.92013e-13
1.97868e-07
3.8031e-12
-1.18995e-05
1.18416e-05
-1.18995e-05
5.67202e-12
1.18416e-05
3.64892e-12
5.38754e-12
4.74314e-11
-3.38348e-05
-5.78757e-08
3.36782e-05
2.14424e-07
-3.38348e-05
-5.78092e-08
3.36782e-05
2.1445e-07
4.40017e-11
-5.34149e-08
1.97859e-07
-5.3354e-08
1.97882e-07
-3.06481e-11
-1.18995e-05
1.18416e-05
-1.18994e-05
1.18416e-05
-2.83258e-11
-5.33838e-11
-3.35122e-05
-6.61691e-08
3.33329e-05
2.45535e-07
-3.35122e-05
-6.6245e-08
-4.74416e-13
3.33328e-05
2.45506e-07
-4.98272e-11
-6.12849e-08
2.2735e-07
-6.13546e-08
-6.28823e-13
2.27324e-07
3.51828e-11
-1.17803e-05
1.17141e-05
-1.17803e-05
-6.06673e-12
1.17141e-05
3.25215e-11
-5.80565e-12
-1.07484e-12
-3.35122e-05
-6.62016e-08
3.33329e-05
2.45516e-07
-3.35122e-05
-6.62011e-08
-1.36559e-12
3.33329e-05
2.45516e-07
-1.14794e-12
-6.13142e-08
2.27334e-07
-6.13138e-08
-1.36224e-12
2.27334e-07
-3.98357e-12
-1.17803e-05
1.17141e-05
-1.17803e-05
-1.33119e-12
1.17141e-05
-3.84043e-12
-1.30747e-12
-4.51245e-15
-3.35122e-05
-6.62025e-08
3.33329e-05
2.45516e-07
-3.35122e-05
-6.62025e-08
1.35885e-12
3.33329e-05
2.45516e-07
9.98261e-16
-6.13151e-08
2.27334e-07
-6.13151e-08
1.36039e-12
2.27334e-07
2.40674e-14
-1.17803e-05
1.17141e-05
-1.17803e-05
1.36905e-12
1.17141e-05
2.17371e-14
1.34541e-12
1.06345e-12
-3.35122e-05
-6.62012e-08
3.33329e-05
2.45516e-07
-3.35122e-05
-6.62016e-08
4.89465e-13
3.33329e-05
2.45516e-07
1.13923e-12
-6.13138e-08
2.27334e-07
-6.13143e-08
6.21428e-13
2.27334e-07
4.0053e-12
-1.17803e-05
1.17141e-05
-1.17803e-05
6.07068e-12
1.17141e-05
3.86311e-12
5.80232e-12
5.35295e-11
-3.35122e-05
-6.62451e-08
3.33328e-05
2.45506e-07
-3.35122e-05
-6.61692e-08
3.33329e-05
2.45535e-07
4.98462e-11
-6.13547e-08
2.27324e-07
-6.1285e-08
2.2735e-07
-3.51724e-11
-1.17803e-05
1.17141e-05
-1.17803e-05
1.17141e-05
-3.25937e-11
-5.99475e-11
-3.31432e-05
-7.5306e-08
3.29391e-05
2.7956e-07
-3.31432e-05
-7.53921e-08
-1.58193e-13
3.2939e-05
2.79527e-07
-5.61026e-11
-6.99621e-08
2.59634e-07
-7.00414e-08
-3.28935e-13
2.59605e-07
4.01334e-11
-1.16441e-05
1.15687e-05
-1.16441e-05
-6.46089e-12
1.15688e-05
3.72526e-11
-6.18882e-12
-8.95272e-13
-3.31433e-05
-7.53432e-08
3.29391e-05
2.79539e-07
-3.31433e-05
-7.53427e-08
-1.33131e-12
3.29391e-05
2.79539e-07
-9.74016e-13
-6.99957e-08
2.59616e-07
-6.99953e-08
-1.3318e-12
2.59616e-07
-4.19473e-12
-1.16441e-05
1.15688e-05
-1.16441e-05
-1.34679e-12
1.15688e-05
-4.03528e-12
-1.3109e-12
5.67351e-15
-3.31433e-05
-7.53443e-08
3.29391e-05
2.79539e-07
-3.31433e-05
-7.53443e-08
1.33544e-12
3.29391e-05
2.79539e-07
3.95501e-15
-6.99967e-08
2.59616e-07
-6.99967e-08
1.33206e-12
2.59616e-07
3.42543e-14
-1.16441e-05
1.15688e-05
-1.16441e-05
1.40663e-12
1.15688e-05
3.6379e-14
1.37991e-12
8.96886e-13
-3.31433e-05
-7.53427e-08
3.29391e-05
2.79539e-07
-3.31433e-05
-7.53432e-08
1.85978e-13
3.29391e-05
2.79539e-07
9.72567e-13
-6.99953e-08
2.59616e-07
-6.99957e-08
3.36548e-13
2.59616e-07
4.23668e-12
-1.16441e-05
1.15688e-05
-1.16441e-05
6.49235e-12
1.15688e-05
4.08414e-12
6.21367e-12
6.00575e-11
-3.31432e-05
-7.53922e-08
3.2939e-05
2.79527e-07
-3.31433e-05
-7.53061e-08
3.29391e-05
2.7956e-07
5.61202e-11
-7.00414e-08
2.59605e-07
-6.99621e-08
2.59634e-07
-4.01079e-11
-1.16441e-05
1.15688e-05
-1.16441e-05
1.15687e-05
-3.72767e-11
-6.68093e-11
-3.27239e-05
-8.51423e-08
3.24928e-05
3.16254e-07
-3.27238e-05
-8.52393e-08
2.06186e-13
3.24928e-05
3.16218e-07
-6.27183e-11
-7.93466e-08
2.94605e-07
-7.94362e-08
3.92698e-15
2.94573e-07
4.54193e-11
-1.14893e-05
1.14042e-05
-1.14894e-05
-6.87746e-12
1.14042e-05
4.23264e-11
-6.59774e-12
-7.12979e-13
-3.27239e-05
-8.51845e-08
3.24928e-05
3.16232e-07
-3.27239e-05
-8.5184e-08
-1.31734e-12
3.24928e-05
3.16231e-07
-7.99134e-13
-7.93848e-08
2.94586e-07
-7.93844e-08
-1.30742e-12
2.94585e-07
-4.44979e-12
-1.14894e-05
1.14042e-05
-1.14894e-05
-1.41208e-12
1.14042e-05
-4.26792e-12
-1.34766e-12
-1.93859e-14
-3.27239e-05
-8.51857e-08
3.24929e-05
3.16232e-07
-3.27239e-05
-8.51857e-08
1.28525e-12
3.24929e-05
3.16232e-07
9.87748e-16
-7.9386e-08
2.94586e-07
-7.9386e-08
1.29923e-12
2.94586e-07
-2.85221e-15
-1.14894e-05
1.14042e-05
-1.14894e-05
1.39637e-12
1.14042e-05
2.50421e-14
1.39739e-12
6.93508e-13
-3.27239e-05
-8.5184e-08
3.24928e-05
3.16231e-07
-3.27239e-05
-8.51845e-08
-1.71502e-13
3.24928e-05
3.16232e-07
7.93751e-13
-7.93844e-08
2.94586e-07
-7.93848e-08
7.63929e-15
2.94586e-07
4.43356e-12
-1.14894e-05
1.14042e-05
-1.14894e-05
6.87807e-12
1.14042e-05
4.29804e-12
6.61207e-12
6.69384e-11
-3.27238e-05
-8.52393e-08
3.24928e-05
3.16218e-07
-3.27239e-05
-8.51424e-08
3.24928e-05
3.16254e-07
6.27388e-11
-7.94362e-08
2.94573e-07
-7.93467e-08
2.94605e-07
-4.54105e-11
-1.14894e-05
1.14042e-05
-1.14893e-05
1.14042e-05
-4.23377e-11
-7.41603e-11
-3.22499e-05
-9.56979e-08
3.199e-05
3.55717e-07
-3.22499e-05
-9.58064e-08
6.07641e-13
3.199e-05
3.55677e-07
-6.97858e-11
-8.94764e-08
3.32429e-07
-8.9577e-08
3.65973e-13
3.32393e-07
5.1034e-11
-1.13146e-05
1.12189e-05
-1.13147e-05
-7.27249e-12
1.12189e-05
4.7699e-11
-7.033e-12
-4.6002e-13
-3.22499e-05
-9.57454e-08
3.199e-05
3.55692e-07
-3.225e-05
-9.57449e-08
-1.24631e-12
3.199e-05
3.55692e-07
-5.98485e-13
-8.95196e-08
3.32408e-07
-8.95192e-08
-1.27482e-12
3.32408e-07
-4.67115e-12
-1.13147e-05
1.12189e-05
-1.13147e-05
-1.44549e-12
1.12189e-05
-4.52316e-12
-1.40959e-12
-1.47244e-14
-3.225e-05
-9.57468e-08
3.199e-05
3.55692e-07
-3.225e-05
-9.57468e-08
1.23581e-12
3.199e-05
3.55692e-07
-1.83575e-14
-8.9521e-08
3.32408e-07
-8.9521e-08
1.24569e-12
3.32408e-07
-3.71474e-14
-1.13147e-05
1.12189e-05
-1.13147e-05
1.36327e-12
1.12189e-05
-2.24158e-14
1.36644e-12
4.58867e-13
-3.225e-05
-9.57449e-08
3.199e-05
3.55692e-07
-3.22499e-05
-9.57453e-08
-5.57923e-13
3.199e-05
3.55692e-07
5.73659e-13
-8.95192e-08
3.32408e-07
-8.95196e-08
-3.62699e-13
3.32408e-07
4.62196e-12
-1.13147e-05
1.12189e-05
-1.13147e-05
7.27802e-12
1.12189e-05
4.48971e-12
7.01314e-12
7.42269e-11
-3.22499e-05
-9.58064e-08
3.199e-05
3.55677e-07
-3.22499e-05
-9.56979e-08
3.199e-05
3.55717e-07
6.97892e-11
-8.9577e-08
3.32393e-07
-8.94764e-08
3.32429e-07
-5.09938e-11
-1.13147e-05
1.12189e-05
-1.13146e-05
1.12189e-05
-4.77199e-11
-8.17961e-11
-3.17176e-05
-1.06881e-07
3.1427e-05
3.97631e-07
-3.17176e-05
-1.07002e-07
1.06554e-12
3.14269e-05
3.97587e-07
-7.7128e-11
-1.00225e-07
3.72658e-07
-1.00338e-07
8.12436e-13
3.72618e-07
5.68567e-11
-1.11186e-05
1.10117e-05
-1.11186e-05
-7.67105e-12
1.10117e-05
5.33537e-11
-7.43147e-12
-1.40126e-13
-3.17176e-05
-1.06934e-07
3.14269e-05
3.97604e-07
-3.17176e-05
-1.06934e-07
-1.13305e-12
3.1427e-05
3.97604e-07
-3.08386e-13
-1.00274e-07
3.72634e-07
-1.00273e-07
-1.18076e-12
3.72634e-07
-4.87695e-12
-1.11186e-05
1.10117e-05
-1.11187e-05
-1.44027e-12
1.10117e-05
-4.74053e-12
-1.43723e-12
2.38078e-14
-3.17177e-05
-1.06936e-07
3.1427e-05
3.97604e-07
-3.17177e-05
-1.06936e-07
1.19991e-12
3.1427e-05
3.97604e-07
-4.68797e-15
-1.00275e-07
3.72634e-07
-1.00275e-07
1.19258e-12
3.72634e-07
-1.34738e-14
-1.11187e-05
1.10117e-05
-1.11187e-05
1.40339e-12
1.10117e-05
-4.93493e-14
1.33551e-12
2.25586e-13
-3.17177e-05
-1.06934e-07
3.1427e-05
3.97604e-07
-3.17176e-05
-1.06934e-07
-9.61029e-13
3.1427e-05
3.97604e-07
3.3164e-13
-1.00273e-07
3.72634e-07
-1.00274e-07
-7.61065e-13
3.72634e-07
4.87852e-12
-1.11187e-05
1.10117e-05
-1.11186e-05
7.72049e-12
1.10117e-05
4.66818e-12
7.38061e-12
8.18244e-11
-3.17176e-05
-1.07002e-07
3.14269e-05
3.97587e-07
-3.17176e-05
-1.06881e-07
3.1427e-05
3.97631e-07
7.71551e-11
-1.00338e-07
3.72618e-07
-1.00225e-07
3.72658e-07
-5.68227e-11
-1.11186e-05
1.10117e-05
-1.11186e-05
1.10117e-05
-5.3405e-11
-8.96968e-11
-3.11234e-05
-1.18611e-07
3.08003e-05
4.41719e-07
-3.11233e-05
-1.18744e-07
1.46298e-12
3.08003e-05
4.41671e-07
-8.47959e-11
-1.11583e-07
4.15277e-07
-1.11707e-07
1.22991e-12
4.15234e-07
6.2846e-11
-1.09e-05
1.07813e-05
-1.09001e-05
-8.1268e-12
1.07814e-05
5.92382e-11
-7.85902e-12
8.34575e-14
-3.11233e-05
-1.1867e-07
3.08003e-05
4.4169e-07
-3.11234e-05
-1.18669e-07
-1.063e-12
3.08003e-05
4.41689e-07
-1.15731e-14
-1.11637e-07
4.15251e-07
-1.11636e-07
-1.08049e-12
4.15251e-07
-5.11682e-12
-1.09001e-05
1.07814e-05
-1.09001e-05
-1.43773e-12
1.07814e-05