/*--------------------------------*- C++ -*----------------------------------*\
  =========                 |
  \\      /  F ield         | OpenFOAM: The Open Source CFD Toolbox
   \\    /   O peration     | Website:  https://openfoam.org
    \\  /    A nd           | Version:  9
     \\/     M anipulation  |
\*---------------------------------------------------------------------------*/
FoamFile
{
    format      ascii;
    class       volVectorField;
    location    "0.5";
    object      U;
}
// * * * * * * * * * * * * * * * * * * * * * * * * * * * * * * * * * * * * * //

dimensions      [0 1 -1 0 0 0 0];

internalField   nonuniform List<vector> 
36360
(
(8.17588e-06 -0.0672944 -0.935985)
(8.11702e-06 -0.0672942 -1.81153e-08)
(1.06555e-05 -0.0673127 -0.945714)
(1.07069e-05 -0.0673128 2.05372e-08)
(1.39921e-06 -0.0237188 -0.923558)
(1.34815e-06 -0.0237187 -1.29009e-08)
(2.66354e-06 -0.0237293 -0.932443)
(2.67172e-06 -0.0237294 1.98398e-08)
(8.10628e-06 -0.0672942 2.66996e-11)
(8.10645e-06 -0.0672942 4.55856e-10)
(1.07211e-05 -0.0673128 1.06207e-09)
(1.07251e-05 -0.0673129 -1.08789e-10)
(1.33866e-06 -0.0237186 -5.57523e-10)
(1.33793e-06 -0.0237187 2.85511e-10)
(2.67297e-06 -0.0237294 1.35755e-09)
(2.67315e-06 -0.0237294 -1.68249e-12)
(8.10819e-06 -0.0672943 1.75875e-10)
(8.10997e-06 -0.0672943 -7.52845e-11)
(1.07274e-05 -0.067313 3.2748e-11)
(1.07296e-05 -0.067313 1.55651e-10)
(1.33833e-06 -0.0237187 1.6762e-10)
(1.33866e-06 -0.0237187 -5.53526e-12)
(2.6735e-06 -0.0237295 6.63134e-11)
(2.67407e-06 -0.0237295 1.50053e-10)
(8.11165e-06 -0.0672943 -3.48992e-10)
(8.11433e-06 -0.0672942 9.09211e-11)
(1.07318e-05 -0.067313 2.93104e-10)
(1.07315e-05 -0.0673129 -8.98105e-10)
(1.33892e-06 -0.0237187 -1.30153e-10)
(1.34017e-06 -0.0237187 6.95697e-10)
(2.67487e-06 -0.0237295 2.04445e-10)
(2.67563e-06 -0.0237294 -1.18658e-09)
(8.1272e-06 -0.0672942 1.82258e-08)
(8.18723e-06 -0.0672945 0.935985)
(1.072e-05 -0.0673128 -2.04549e-08)
(1.06701e-05 -0.0673128 0.945714)
(1.3501e-06 -0.0237187 1.30044e-08)
(1.40143e-06 -0.0237188 0.923558)
(2.6751e-06 -0.0237294 -1.97461e-08)
(2.66729e-06 -0.0237294 0.932443)
(8.34448e-06 -0.06727 -0.935188)
(8.33902e-06 -0.0672701 -4.33765e-09)
(7.49117e-06 -0.0672827 -0.935423)
(7.4818e-06 -0.0672829 -5.57492e-09)
(9.30071e-07 -0.0237095 -0.92278)
(9.07064e-07 -0.0237096 -2.21207e-09)
(9.41021e-07 -0.0237141 -0.923009)
(9.19061e-07 -0.0237142 -4.19287e-09)
(8.34064e-06 -0.0672702 -4.11309e-10)
(8.34351e-06 -0.0672702 2.31542e-10)
(7.48774e-06 -0.067283 1.42149e-09)
(7.49336e-06 -0.0672831 9.25187e-10)
(9.02746e-07 -0.0237096 -6.53779e-10)
(9.03058e-07 -0.0237096 1.46185e-10)
(9.1844e-07 -0.0237142 6.37345e-10)
(9.20528e-07 -0.0237142 7.15345e-10)
(8.3453e-06 -0.0672703 1.27797e-10)
(8.34644e-06 -0.0672703 -2.07199e-11)
(7.49635e-06 -0.0672831 2.83436e-10)
(7.49778e-06 -0.0672831 -1.84315e-10)
(9.03484e-07 -0.0237097 1.44733e-10)
(9.03648e-07 -0.0237097 1.05861e-11)
(9.21588e-07 -0.0237143 2.81504e-10)
(9.2181e-07 -0.0237143 -1.25063e-10)
(8.34684e-06 -0.0672703 -1.35251e-10)
(8.3458e-06 -0.0672702 4.77567e-10)
(7.49753e-06 -0.0672831 -8.3224e-10)
(7.49423e-06 -0.067283 -1.33833e-09)
(9.03549e-07 -0.0237097 -1.17425e-11)
(9.03497e-07 -0.0237096 7.61739e-10)
(9.21189e-07 -0.0237143 -5.77068e-10)
(9.19463e-07 -0.0237142 -5.24221e-10)
(8.34552e-06 -0.0672701 4.38227e-09)
(8.35169e-06 -0.06727 0.935188)
(7.48996e-06 -0.0672829 5.63262e-09)
(7.50021e-06 -0.0672828 0.935423)
(9.08021e-07 -0.0237096 2.28202e-09)
(9.31204e-07 -0.0237096 0.92278)
(9.20339e-07 -0.0237142 4.28799e-09)
(9.42479e-07 -0.0237141 0.923009)
(1.31127e-05 -0.0672348 -0.934362)
(1.3096e-05 -0.0672348 -4.77064e-09)
(1.02992e-05 -0.0672543 -0.934597)
(1.02861e-05 -0.0672544 -4.82919e-09)
(1.4873e-06 -0.0236971 -0.921974)
(1.44795e-06 -0.0236972 -1.16759e-09)
(1.13489e-06 -0.023704 -0.922204)
(1.10354e-06 -0.0237041 -1.87832e-09)
(1.30924e-05 -0.0672349 -1.23917e-09)
(1.30936e-05 -0.067235 -3.53632e-10)
(1.02836e-05 -0.0672545 -1.03122e-09)
(1.02852e-05 -0.0672545 -6.66336e-11)
(1.43809e-06 -0.0236972 -1.57976e-09)
(1.43732e-06 -0.0236972 -5.56386e-10)
(1.09574e-06 -0.0237041 -1.27692e-09)
(1.09537e-06 -0.0237041 -2.28369e-10)
(1.30946e-05 -0.067235 9.65243e-13)
(1.30952e-05 -0.067235 1.8636e-10)
(1.02865e-05 -0.0672546 8.4347e-11)
(1.02873e-05 -0.0672546 7.75096e-11)
(1.4375e-06 -0.0236972 -1.57568e-11)
(1.43758e-06 -0.0236972 2.17112e-10)
(1.09562e-06 -0.0237041 8.1659e-11)
(1.09574e-06 -0.0237041 1.14015e-10)
(1.30954e-05 -0.067235 5.01495e-10)
(1.30952e-05 -0.0672349 1.32059e-09)
(1.02877e-05 -0.0672546 2.00223e-10)
(1.02875e-05 -0.0672545 1.10796e-09)
(1.43754e-06 -0.0236972 7.22198e-10)
(1.43844e-06 -0.0236972 1.7155e-09)
(1.09571e-06 -0.0237041 3.85451e-10)
(1.09626e-06 -0.0237041 1.40182e-09)
(1.30995e-05 -0.0672349 4.83391e-09)
(1.31166e-05 -0.0672348 0.934362)
(1.02911e-05 -0.0672544 4.89104e-09)
(1.03047e-05 -0.0672543 0.934597)
(1.44843e-06 -0.0236972 1.25559e-09)
(1.48794e-06 -0.0236971 0.921974)
(1.10423e-06 -0.0237041 1.9705e-09)
(1.1358e-06 -0.023704 0.922204)
(2.04887e-05 -0.0671802 -0.93351)
(2.04639e-05 -0.0671802 -5.44765e-09)
(1.65716e-05 -0.0672103 -0.933743)
(1.65512e-05 -0.0672103 -4.99035e-09)
(2.4455e-06 -0.0236774 -0.921144)
(2.38534e-06 -0.0236775 -8.92761e-12)
(1.93691e-06 -0.0236884 -0.921371)
(1.88796e-06 -0.0236884 -5.19673e-10)
(2.04586e-05 -0.0671803 -1.56149e-09)
(2.04588e-05 -0.0671804 -8.76615e-10)
(1.65468e-05 -0.0672104 -1.42973e-09)
(1.65474e-05 -0.0672105 -6.30721e-10)
(2.37055e-06 -0.0236775 -2.08865e-09)
(2.3686e-06 -0.0236775 -1.13446e-09)
(1.87576e-06 -0.0236884 -1.83493e-09)
(1.8744e-06 -0.0236884 -8.60888e-10)
(2.04593e-05 -0.0671804 -2.32176e-10)
(2.04596e-05 -0.0671804 3.81796e-10)
(1.65482e-05 -0.0672105 -1.08684e-10)
(1.65486e-05 -0.0672105 3.03803e-10)
(2.36862e-06 -0.0236775 -2.77293e-10)
(2.36864e-06 -0.0236775 4.35242e-10)
(1.87449e-06 -0.0236885 -1.39651e-10)
(1.87453e-06 -0.0236885 3.44033e-10)
(2.04595e-05 -0.0671804 1.01036e-09)
(2.04596e-05 -0.0671803 1.64369e-09)
(1.65486e-05 -0.0672105 8.13497e-10)
(1.65486e-05 -0.0672104 1.52507e-09)
(2.36865e-06 -0.0236775 1.27165e-09)
(2.37064e-06 -0.0236775 2.18713e-09)
(1.87452e-06 -0.0236884 1.04165e-09)
(1.87597e-06 -0.0236884 1.99102e-09)
(2.04652e-05 -0.0671802 5.51847e-09)
(2.04902e-05 -0.0671802 0.93351)
(1.65535e-05 -0.0672103 5.04455e-09)
(1.65742e-05 -0.0672103 0.933743)
(2.38551e-06 -0.0236775 7.59279e-11)
(2.44576e-06 -0.0236774 0.921144)
(1.88826e-06 -0.0236884 6.17621e-10)
(1.93737e-06 -0.0236884 0.921371)
(2.93121e-05 -0.067101 -0.932632)
(2.9278e-05 -0.067101 -6.66496e-09)
(2.47568e-05 -0.0671438 -0.93288)
(2.47275e-05 -0.0671439 -6.03137e-09)
(3.57213e-06 -0.0236485 -0.920287)
(3.48685e-06 -0.0236485 1.01565e-09)
(2.99382e-06 -0.0236642 -0.920529)
(2.92155e-06 -0.0236642 4.88193e-10)
(2.92711e-05 -0.0671011 -1.7019e-09)
(2.92709e-05 -0.0671012 -1.17213e-09)
(2.47214e-05 -0.067144 -1.65553e-09)
(2.47213e-05 -0.067144 -1.04858e-09)
(3.46633e-06 -0.0236485 -2.4741e-09)
(3.46338e-06 -0.0236486 -1.53594e-09)
(2.90399e-06 -0.0236642 -2.2888e-09)
(2.90153e-06 -0.0236643 -1.3575e-09)
(2.92712e-05 -0.0671012 -4.0454e-10)
(2.92712e-05 -0.0671012 4.87572e-10)
(2.47217e-05 -0.0671441 -3.33669e-10)
(2.47218e-05 -0.0671441 4.36742e-10)
(3.46322e-06 -0.0236486 -4.77996e-10)
(3.46321e-06 -0.0236486 5.48551e-10)
(2.90147e-06 -0.0236643 -3.91235e-10)
(2.90148e-06 -0.0236643 4.95787e-10)
(2.9271e-05 -0.0671012 1.24822e-09)
(2.92712e-05 -0.0671011 1.76249e-09)
(2.47216e-05 -0.067144 1.14063e-09)
(2.47219e-05 -0.067144 1.701e-09)
(3.46337e-06 -0.0236486 1.59471e-09)
(3.46632e-06 -0.0236485 2.50586e-09)
(2.90154e-06 -0.0236643 1.44097e-09)
(2.90401e-06 -0.0236642 2.33626e-09)
(2.92782e-05 -0.067101 6.76941e-09)
(2.93124e-05 -0.067101 0.932632)
(2.47281e-05 -0.0671439 6.06957e-09)
(2.47575e-05 -0.0671438 0.93288)
(3.48689e-06 -0.0236485 -9.83185e-10)
(3.57221e-06 -0.0236485 0.920287)
(2.92163e-06 -0.0236642 -5.00626e-10)
(2.99397e-06 -0.0236642 0.920529)
(3.92715e-05 -0.0669943 -0.931724)
(3.92269e-05 -0.0669943 -8.24373e-09)
(3.41469e-05 -0.0670512 -0.931977)
(3.41078e-05 -0.0670513 -7.4494e-09)
(4.81805e-06 -0.0236092 -0.919401)
(4.70444e-06 -0.0236093 2.0067e-09)
(4.17927e-06 -0.0236302 -0.919648)
(4.08027e-06 -0.0236302 1.47789e-09)
(3.92184e-05 -0.0669944 -1.81485e-09)
(3.92181e-05 -0.0669945 -1.37861e-09)
(3.41001e-05 -0.0670513 -1.77064e-09)
(3.40998e-05 -0.0670514 -1.28806e-09)
(4.67749e-06 -0.0236093 -2.85471e-09)
(4.67351e-06 -0.0236093 -1.82053e-09)
(4.05663e-06 -0.0236302 -2.67004e-09)
(4.05317e-06 -0.0236303 -1.68992e-09)
(3.92182e-05 -0.0669946 -5.21483e-10)
(3.92182e-05 -0.0669946 5.65862e-10)
(3.41e-05 -0.0670515 -4.67505e-10)
(3.41e-05 -0.0670515 5.32496e-10)
(4.67316e-06 -0.0236093 -5.92869e-10)
(4.67315e-06 -0.0236093 6.40117e-10)
(4.05291e-06 -0.0236303 -5.39726e-10)
(4.0529e-06 -0.0236303 5.95413e-10)
(3.9218e-05 -0.0669945 1.41787e-09)
(3.92183e-05 -0.0669944 1.84837e-09)
(3.40998e-05 -0.0670514 1.34007e-09)
(3.41001e-05 -0.0670513 1.79971e-09)
(4.6735e-06 -0.0236093 1.85321e-09)
(4.67746e-06 -0.0236093 2.87544e-09)
(4.05316e-06 -0.0236303 1.72516e-09)
(4.0566e-06 -0.0236302 2.66879e-09)
(3.92268e-05 -0.0669944 8.32951e-09)
(3.92714e-05 -0.0669943 0.931724)
(3.41078e-05 -0.0670513 7.48242e-09)
(3.41469e-05 -0.0670512 0.931977)
(4.70444e-06 -0.0236093 -1.97177e-09)
(4.81812e-06 -0.0236092 0.919401)
(4.08028e-06 -0.0236302 -1.53008e-09)
(4.17934e-06 -0.0236302 0.919648)
(5.05398e-05 -0.0668575 -0.930785)
(5.04833e-05 -0.0668575 -1.01055e-08)
(4.47248e-05 -0.0669298 -0.931055)
(4.46745e-05 -0.0669299 -9.17112e-09)
(6.21189e-06 -0.0235588 -0.918485)
(6.0663e-06 -0.0235588 2.99124e-09)
(5.49368e-06 -0.0235855 -0.918748)
(5.36461e-06 -0.0235855 2.46897e-09)
(5.0473e-05 -0.0668576 -1.91417e-09)
(5.04727e-05 -0.0668577 -1.53868e-09)
(4.46651e-05 -0.0669299 -1.87417e-09)
(4.46648e-05 -0.06693 -1.46422e-09)
(6.03214e-06 -0.0235588 -3.28103e-09)
(6.02706e-06 -0.0235589 -2.08621e-09)
(5.33416e-06 -0.0235855 -3.06796e-09)
(5.32965e-06 -0.0235855 -1.95578e-09)
(5.04729e-05 -0.0668577 -6.34853e-10)
(5.04729e-05 -0.0668577 5.77529e-10)
(4.4665e-05 -0.0669301 -5.77213e-10)
(4.4665e-05 -0.0669301 5.78349e-10)
(6.02655e-06 -0.0235589 -7.16813e-10)
(6.02655e-06 -0.0235589 6.73591e-10)
(5.32922e-06 -0.0235856 -6.5011e-10)
(5.32921e-06 -0.0235856 6.63725e-10)
(5.04727e-05 -0.0668577 1.48461e-09)
(5.04729e-05 -0.0668576 1.87605e-09)
(4.46648e-05 -0.06693 1.45671e-09)
(4.4665e-05 -0.06693 1.8564e-09)
(6.02704e-06 -0.0235589 2.03995e-09)
(6.03211e-06 -0.0235588 3.23133e-09)
(5.32963e-06 -0.0235855 1.9482e-09)
(5.33414e-06 -0.0235855 3.04639e-09)
(5.04832e-05 -0.0668575 1.016e-08)
(5.05397e-05 -0.0668575 0.930785)
(4.46744e-05 -0.0669299 9.173e-09)
(4.47247e-05 -0.0669298 0.931055)
(6.06632e-06 -0.0235588 -3.00613e-09)
(6.21197e-06 -0.0235588 0.918485)
(5.3646e-06 -0.0235855 -2.51514e-09)
(5.49376e-06 -0.0235855 0.918748)
(6.34425e-05 -0.0666873 -0.929824)
(6.33725e-05 -0.0666873 -1.2283e-08)
(5.67664e-05 -0.0667768 -0.930091)
(5.67034e-05 -0.0667768 -1.1194e-08)
(7.79956e-06 -0.023496 -0.917548)
(7.61761e-06 -0.023496 4.09675e-09)
(6.97847e-06 -0.023529 -0.917809)
(6.81533e-06 -0.023529 3.47757e-09)
(6.33602e-05 -0.0666874 -1.98967e-09)
(6.336e-05 -0.0666875 -1.63534e-09)
(5.66922e-05 -0.0667769 -1.97087e-09)
(5.6692e-05 -0.066777 -1.60135e-09)
(7.57519e-06 -0.023496 -3.70737e-09)
(7.56889e-06 -0.0234961 -2.34064e-09)
(6.7772e-06 -0.0235291 -3.50983e-09)
(6.77153e-06 -0.0235291 -2.21985e-09)
(6.33603e-05 -0.0666875 -6.86374e-10)
(6.33603e-05 -0.0666875 6.31701e-10)
(5.66922e-05 -0.066777 -6.74725e-10)
(5.66922e-05 -0.066777 5.8904e-10)
(7.56827e-06 -0.0234961 -8.13043e-10)
(7.56826e-06 -0.0234961 7.26267e-10)
(6.77096e-06 -0.0235291 -7.72555e-10)
(6.77095e-06 -0.0235291 6.87921e-10)
(6.336e-05 -0.0666875 1.5834e-09)
(6.33601e-05 -0.0666874 1.95297e-09)
(5.66919e-05 -0.066777 1.51364e-09)
(5.66921e-05 -0.0667769 1.88814e-09)
(7.56888e-06 -0.0234961 2.25607e-09)
(7.57518e-06 -0.023496 3.63162e-09)
(6.77151e-06 -0.0235291 2.12897e-09)
(6.77718e-06 -0.0235291 3.40987e-09)
(6.33724e-05 -0.0666873 1.23338e-08)
(6.34424e-05 -0.0666873 0.929824)
(5.67033e-05 -0.0667768 1.11601e-08)
(5.67663e-05 -0.0667768 0.930091)
(7.61766e-06 -0.023496 -4.12575e-09)
(7.79969e-06 -0.023496 0.917548)
(6.81536e-06 -0.023529 -3.59477e-09)
(6.97858e-06 -0.023529 0.917809)
(7.83334e-05 -0.0664798 -0.928834)
(7.8248e-05 -0.0664798 -1.47795e-08)
(7.06194e-05 -0.0665885 -0.929098)
(7.0542e-05 -0.0665885 -1.35169e-08)
(9.62666e-06 -0.0234194 -0.916582)
(9.40314e-06 -0.0234194 5.39866e-09)
(8.68026e-06 -0.0234595 -0.916839)
(8.47828e-06 -0.0234595 4.67228e-09)
(7.82331e-05 -0.0664799 -2.05665e-09)
(7.82332e-05 -0.06648 -1.70094e-09)
(7.05285e-05 -0.0665886 -2.03786e-09)
(7.05285e-05 -0.0665886 -1.67594e-09)
(9.35112e-06 -0.0234194 -4.14635e-09)
(9.34347e-06 -0.0234195 -2.56963e-09)
(8.43124e-06 -0.0234596 -3.93539e-09)
(8.4243e-06 -0.0234596 -2.46194e-09)
(7.82337e-05 -0.06648 -6.94661e-10)
(7.82337e-05 -0.06648 7.37325e-10)
(7.05289e-05 -0.0665887 -6.96574e-10)
(7.05288e-05 -0.0665887 6.79525e-10)
(9.34275e-06 -0.0234195 -8.55808e-10)
(9.34275e-06 -0.0234195 8.50017e-10)
(8.42362e-06 -0.0234596 -8.41374e-10)
(8.42362e-06 -0.0234596 7.78486e-10)
(7.82332e-05 -0.06648 1.73728e-09)
(7.8233e-05 -0.0664799 2.0807e-09)
(7.05284e-05 -0.0665886 1.65558e-09)
(7.05284e-05 -0.0665886 2.013e-09)
(9.34347e-06 -0.0234195 2.56109e-09)
(9.35113e-06 -0.0234194 4.13128e-09)
(8.42429e-06 -0.0234596 2.3953e-09)
(8.43125e-06 -0.0234596 3.86137e-09)
(7.82479e-05 -0.0664798 1.48306e-08)
(7.83334e-05 -0.0664798 0.928834)
(7.05419e-05 -0.0665885 1.35156e-08)
(7.06193e-05 -0.0665885 0.929098)
(9.40319e-06 -0.0234194 -5.39197e-09)
(9.62685e-06 -0.0234194 0.916582)
(8.47833e-06 -0.0234595 -4.77699e-09)
(8.68043e-06 -0.0234595 0.916839)
(9.55662e-05 -0.0662302 -0.927799)
(9.54633e-05 -0.0662302 -1.7545e-08)
(8.66383e-05 -0.0663605 -0.928082)
(8.65445e-05 -0.0663606 -1.61107e-08)
(1.17363e-05 -0.0233272 -0.915573)
(1.1465e-05 -0.0233272 6.95103e-09)
(1.06434e-05 -0.0233753 -0.915848)
(1.03969e-05 -0.0233754 6.14129e-09)
(9.54454e-05 -0.0662303 -2.1008e-09)
(9.54459e-05 -0.0662304 -1.77573e-09)
(8.65282e-05 -0.0663606 -2.08615e-09)
(8.65285e-05 -0.0663607 -1.74059e-09)
(1.14019e-05 -0.0233273 -4.61026e-09)
(1.13927e-05 -0.0233273 -2.80286e-09)
(1.03395e-05 -0.0233754 -4.36876e-09)
(1.03311e-05 -0.0233754 -2.68247e-09)
(9.54467e-05 -0.0662304 -7.33514e-10)
(9.54467e-05 -0.0662304 8.00758e-10)
(8.65292e-05 -0.0663607 -7.10516e-10)
(8.65292e-05 -0.0663607 7.78599e-10)
(1.13919e-05 -0.0233273 -8.91489e-10)
(1.13919e-05 -0.0233273 9.87148e-10)
(1.03304e-05 -0.0233754 -8.68056e-10)
(1.03304e-05 -0.0233754 9.24195e-10)
(9.54458e-05 -0.0662304 1.83185e-09)
(9.54454e-05 -0.0662303 2.12845e-09)
(8.65285e-05 -0.0663607 1.799e-09)
(8.65282e-05 -0.0663606 2.12465e-09)
(1.13927e-05 -0.0233273 2.88524e-09)
(1.14019e-05 -0.0233273 4.6572e-09)
(1.03311e-05 -0.0233754 2.72512e-09)
(1.03395e-05 -0.0233754 4.39261e-09)
(9.54633e-05 -0.0662302 1.75769e-08)
(9.55662e-05 -0.0662302 0.927799)
(8.65445e-05 -0.0663606 1.61521e-08)
(8.66383e-05 -0.0663605 0.928082)
(1.1465e-05 -0.0233272 -6.93172e-09)
(1.17365e-05 -0.0233272 0.915573)
(1.03969e-05 -0.0233754 -6.15069e-09)
(1.06436e-05 -0.0233753 0.915848)
(0.000115493 -0.0659332 -0.926744)
(0.00011537 -0.0659332 -2.06005e-08)
(0.000105173 -0.0660879 -0.927032)
(0.000105061 -0.066088 -1.89953e-08)
(1.41698e-05 -0.0232175 -0.914544)
(1.38437e-05 -0.0232175 8.81871e-09)
(1.29096e-05 -0.0232747 -0.914825)
(1.2612e-05 -0.0232747 7.91105e-09)
(0.000115348 -0.0659333 -2.05948e-09)
(0.000115349 -0.0659333 -1.81193e-09)
(0.000105041 -0.066088 -2.07868e-09)
(0.000105042 -0.0660881 -1.78809e-09)
(1.37679e-05 -0.0232175 -5.07531e-09)
(1.3757e-05 -0.0232176 -3.03991e-09)
(1.25427e-05 -0.0232747 -4.80874e-09)
(1.25327e-05 -0.0232747 -2.90201e-09)
(0.00011535 -0.0659334 -7.76294e-10)
(0.00011535 -0.0659334 8.19886e-10)
(0.000105043 -0.0660882 -7.42732e-10)
(0.000105043 -0.0660882 8.30194e-10)
(1.37561e-05 -0.0232176 -9.52669e-10)
(1.37561e-05 -0.0232176 1.06411e-09)
(1.25319e-05 -0.0232748 -9.00598e-10)
(1.25318e-05 -0.0232748 1.05092e-09)
(0.000115349 -0.0659334 1.84187e-09)
(0.000115348 -0.0659333 2.06145e-09)
(0.000105042 -0.0660881 1.8617e-09)
(0.000105041 -0.0660881 2.12206e-09)
(1.3757e-05 -0.0232176 3.13351e-09)
(1.37679e-05 -0.0232176 5.12341e-09)
(1.25327e-05 -0.0232747 3.03304e-09)
(1.25427e-05 -0.0232747 4.91154e-09)
(0.00011537 -0.0659332 2.06242e-08)
(0.000115493 -0.0659332 0.926744)
(0.000105061 -0.066088 1.90403e-08)
(0.000105173 -0.066088 0.927032)
(1.38437e-05 -0.0232175 -8.80743e-09)
(1.41699e-05 -0.0232175 0.914544)
(1.2612e-05 -0.0232747 -7.82724e-09)
(1.29098e-05 -0.0232747 0.914825)
(0.000138464 -0.0655827 -0.925638)
(0.000138318 -0.0655828 -2.40216e-08)
(0.00012658 -0.065765 -0.925949)
(0.000126446 -0.065765 -2.22474e-08)
(1.69671e-05 -0.023088 -0.913464)
(1.65783e-05 -0.023088 1.09922e-08)
(1.55202e-05 -0.0231553 -0.913768)
(1.51638e-05 -0.0231554 9.9031e-09)
(0.000138293 -0.0655828 -1.94647e-09)
(0.000138294 -0.0655829 -1.82514e-09)
(0.000126423 -0.0657651 -2.00024e-09)
(0.000126424 -0.0657651 -1.81163e-09)
(1.6488e-05 -0.0230881 -5.57608e-09)
(1.64751e-05 -0.0230881 -3.32432e-09)
(1.5081e-05 -0.0231554 -5.30175e-09)
(1.50691e-05 -0.0231554 -3.1698e-09)
(0.000138296 -0.0655829 -8.40377e-10)
(0.000138296 -0.0655829 7.755e-10)
(0.000126425 -0.0657652 -8.00785e-10)
(0.000126425 -0.0657652 8.0392e-10)
(1.64742e-05 -0.0230881 -1.0923e-09)
(1.64742e-05 -0.0230881 1.01647e-09)
(1.50682e-05 -0.0231554 -1.01087e-09)
(1.50682e-05 -0.0231554 1.052e-09)
(0.000138294 -0.0655829 1.75539e-09)
(0.000138293 -0.0655828 1.8888e-09)
(0.000126424 -0.0657652 1.80293e-09)
(0.000126423 -0.0657651 1.97661e-09)
(1.64751e-05 -0.0230881 3.24698e-09)
(1.6488e-05 -0.0230881 5.49642e-09)
(1.50691e-05 -0.0231554 3.1978e-09)
(1.50809e-05 -0.0231554 5.31162e-09)
(0.000138318 -0.0655828 2.40643e-08)
(0.000138464 -0.0655828 0.925638)
(0.000126446 -0.065765 2.22478e-08)
(0.00012658 -0.065765 0.925949)
(1.65783e-05 -0.023088 -1.10315e-08)
(1.69672e-05 -0.023088 0.913464)
(1.51638e-05 -0.0231554 -9.89988e-09)
(1.55203e-05 -0.0231553 0.913768)
(0.000164823 -0.0651724 -0.924526)
(0.000164651 -0.0651724 -2.79575e-08)
(0.0001512 -0.0653855 -0.924816)
(0.000151042 -0.0653855 -2.59731e-08)
(2.01668e-05 -0.0229364 -0.91238)
(1.97065e-05 -0.0229364 1.34506e-08)
(1.85135e-05 -0.0230151 -0.912664)
(1.80901e-05 -0.0230151 1.21001e-08)
(0.000164622 -0.0651724 -1.82511e-09)
(0.000164623 -0.0651725 -1.83076e-09)
(0.000151015 -0.0653855 -1.91098e-09)
(0.000151016 -0.0653856 -1.84278e-09)
(1.95997e-05 -0.0229364 -6.14128e-09)
(1.95846e-05 -0.0229365 -3.62834e-09)
(1.79918e-05 -0.0230152 -5.88177e-09)
(1.79778e-05 -0.0230152 -3.49422e-09)
(0.000164626 -0.0651726 -8.90849e-10)
(0.000164626 -0.0651726 7.60512e-10)
(0.000151018 -0.0653857 -8.82177e-10)
(0.000151018 -0.0653857 7.44412e-10)
(1.95835e-05 -0.0229365 -1.21684e-09)
(1.95836e-05 -0.0229365 1.00155e-09)
(1.79768e-05 -0.0230152 -1.17561e-09)
(1.79768e-05 -0.0230152 9.83979e-10)
(0.000164623 -0.0651725 1.71021e-09)
(0.000164622 -0.0651724 1.75268e-09)
(0.000151016 -0.0653856 1.70416e-09)
(0.000151015 -0.0653855 1.78904e-09)
(1.95846e-05 -0.0229365 3.42778e-09)
(1.95998e-05 -0.0229364 5.97637e-09)
(1.79778e-05 -0.0230152 3.30441e-09)
(1.79918e-05 -0.0230152 5.68891e-09)
(0.000164651 -0.0651724 2.80314e-08)
(0.000164823 -0.0651724 0.924526)
(0.000151042 -0.0653855 2.59091e-08)
(0.0001512 -0.0653855 0.924816)
(1.97066e-05 -0.0229364 -1.35065e-08)
(2.01669e-05 -0.0229364 0.91238)
(1.80901e-05 -0.0230151 -1.23102e-08)
(1.85136e-05 -0.0230151 0.912664)
(0.000194908 -0.0646949 -0.923346)
(0.000194707 -0.0646949 -3.24703e-08)
(0.000179385 -0.0649424 -0.923664)
(0.000179199 -0.0649424 -3.02077e-08)
(2.38044e-05 -0.0227599 -0.911229)
(2.32634e-05 -0.02276 1.62059e-08)
(2.19281e-05 -0.0228514 -0.91154)
(2.14286e-05 -0.0228514 1.46621e-08)
(0.000194673 -0.064695 -1.69053e-09)
(0.000194676 -0.0646951 -1.78572e-09)
(0.000179167 -0.0649425 -1.79526e-09)
(0.00017917 -0.0649425 -1.82896e-09)
(2.31379e-05 -0.02276 -6.74152e-09)
(2.31203e-05 -0.02276 -3.87912e-09)
(2.13128e-05 -0.0228515 -6.47661e-09)
(2.12965e-05 -0.0228515 -3.77242e-09)
(0.000194678 -0.0646951 -8.71744e-10)
(0.000194678 -0.0646951 8.29335e-10)
(0.000179172 -0.0649426 -8.92726e-10)
(0.000179172 -0.0649426 7.87252e-10)
(2.31191e-05 -0.02276 -1.22832e-09)
(2.31191e-05 -0.02276 1.13142e-09)
(2.12953e-05 -0.0228515 -1.23829e-09)
(2.12953e-05 -0.0228515 1.05079e-09)
(0.000194676 -0.0646951 1.74757e-09)
(0.000194673 -0.064695 1.67285e-09)
(0.00017917 -0.0649425 1.72434e-09)
(0.000179167 -0.0649425 1.70668e-09)
(2.31203e-05 -0.02276 3.78752e-09)
(2.3138e-05 -0.02276 6.6637e-09)
(2.12965e-05 -0.0228515 3.58656e-09)
(2.13128e-05 -0.0228515 6.28201e-09)
(0.000194707 -0.0646949 3.25464e-08)
(0.000194908 -0.0646949 0.923346)
(0.000179199 -0.0649424 3.01628e-08)
(0.000179385 -0.0649424 0.923664)
(2.32634e-05 -0.02276 -1.62114e-08)
(2.38046e-05 -0.0227599 0.911229)
(2.14287e-05 -0.0228514 -1.48949e-08)
(2.19282e-05 -0.0228514 0.91154)
(0.000229021 -0.0641431 -0.922146)
(0.000228788 -0.0641431 -3.73779e-08)
(0.000211446 -0.0644288 -0.922454)
(0.000211229 -0.0644288 -3.49057e-08)
(2.79107e-05 -0.0225561 -0.910058)
(2.72788e-05 -0.0225561 1.93907e-08)
(2.57959e-05 -0.0226616 -0.91036)
(2.52107e-05 -0.0226616 1.76788e-08)
(0.000228749 -0.0641432 -1.42947e-09)
(0.000228752 -0.0641433 -1.66987e-09)
(0.000211193 -0.0644288 -1.5804e-09)
(0.000211196 -0.0644289 -1.7284e-09)
(2.71325e-05 -0.0225562 -7.32801e-09)
(2.7112e-05 -0.0225562 -4.09864e-09)
(2.50751e-05 -0.0226617 -7.0407e-09)
(2.50561e-05 -0.0226617 -3.98399e-09)
(0.000228755 -0.0641433 -8.37267e-10)
(0.000228755 -0.0641433 8.58367e-10)
(0.000211199 -0.0644289 -8.43272e-10)
(0.000211199 -0.0644289 8.60978e-10)
(2.71106e-05 -0.0225562 -1.21805e-09)
(2.71106e-05 -0.0225562 1.25626e-09)
(2.50548e-05 -0.0226617 -1.21509e-09)
(2.50548e-05 -0.0226617 1.20212e-09)
(0.000228752 -0.0641433 1.6853e-09)
(0.000228749 -0.0641432 1.44706e-09)
(0.000211196 -0.0644289 1.73991e-09)
(0.000211193 -0.0644288 1.58641e-09)
(2.7112e-05 -0.0225562 4.12652e-09)
(2.71325e-05 -0.0225562 7.34009e-09)
(2.50561e-05 -0.0226617 3.96214e-09)
(2.50752e-05 -0.0226617 6.99305e-09)
(0.000228788 -0.0641431 3.74768e-08)
(0.000229021 -0.0641431 0.922146)
(0.00021123 -0.0644288 3.49124e-08)
(0.000211446 -0.0644288 0.922454)
(2.72789e-05 -0.0225561 -1.93637e-08)
(2.79108e-05 -0.0225561 0.910058)
(2.52108e-05 -0.0226617 -1.77895e-08)
(2.5796e-05 -0.0226616 0.91036)
(0.000267443 -0.0635092 -0.920892)
(0.000267174 -0.0635092 -4.27101e-08)
(0.000247684 -0.0638368 -0.921225)
(0.000247433 -0.0638368 -4.00136e-08)
(3.25112e-05 -0.0223219 -0.908835)
(3.17781e-05 -0.022322 2.30359e-08)
(3.01465e-05 -0.0224429 -0.90916)
(2.94654e-05 -0.022443 2.11347e-08)
(0.000267129 -0.0635092 -1.10137e-09)
(0.000267133 -0.0635093 -1.56395e-09)
(0.000247391 -0.0638369 -1.28019e-09)
(0.000247395 -0.0638369 -1.61958e-09)
(3.16084e-05 -0.022322 -7.95491e-09)
(3.15848e-05 -0.022322 -4.36762e-09)
(2.93077e-05 -0.022443 -7.63127e-09)
(2.92857e-05 -0.022443 -4.22144e-09)
(0.000267137 -0.0635093 -8.46684e-10)
(0.000267137 -0.0635093 8.32059e-10)
(0.000247398 -0.063837 -8.43133e-10)
(0.000247398 -0.063837 8.37957e-10)
(3.15831e-05 -0.0223221 -1.25615e-09)
(3.15832e-05 -0.0223221 1.32557e-09)
(2.92842e-05 -0.0224431 -1.22927e-09)
(2.92842e-05 -0.0224431 1.29268e-09)
(0.000267133 -0.0635093 1.546e-09)
(0.000267129 -0.0635092 1.10288e-09)
(0.000247395 -0.0638369 1.60528e-09)
(0.000247391 -0.0638369 1.26631e-09)
(3.15848e-05 -0.0223221 4.41497e-09)
(3.16085e-05 -0.022322 7.98047e-09)
(2.92857e-05 -0.022443 4.26893e-09)
(2.93077e-05 -0.022443 7.64704e-09)
(0.000267174 -0.0635092 4.28377e-08)
(0.000267443 -0.0635092 0.920892)
(0.000247433 -0.0638368 4.00228e-08)
(0.000247684 -0.0638368 0.921225)
(3.17782e-05 -0.022322 -2.30245e-08)
(3.25113e-05 -0.022322 0.908835)
(2.94655e-05 -0.022443 -2.11946e-08)
(3.01466e-05 -0.022443 0.90916)
(0.000310401 -0.0627852 -0.919615)
(0.000310092 -0.0627852 -4.86056e-08)
(0.000288347 -0.0631589 -0.919956)
(0.000288058 -0.0631589 -4.56358e-08)
(3.76239e-05 -0.0220547 -0.90759)
(3.67788e-05 -0.0220547 2.7174e-08)
(3.5001e-05 -0.0221926 -0.907923)
(3.42133e-05 -0.0221927 2.50665e-08)
(0.00031004 -0.0627852 -7.31548e-10)
(0.000310045 -0.0627853 -1.4375e-09)
(0.00028801 -0.0631589 -9.29926e-10)
(0.000288015 -0.063159 -1.49664e-09)
(3.65833e-05 -0.0220548 -8.61307e-09)
(3.6556e-05 -0.0220548 -4.66205e-09)
(3.4031e-05 -0.0221927 -8.26139e-09)
(3.40056e-05 -0.0221927 -4.49286e-09)
(0.00031005 -0.0627853 -8.34517e-10)
(0.00031005 -0.0627853 8.49084e-10)
(0.000288019 -0.063159 -8.34772e-10)
(0.000288019 -0.063159 8.40065e-10)
(3.65542e-05 -0.0220548 -1.30078e-09)
(3.65542e-05 -0.0220548 1.40055e-09)
(3.40038e-05 -0.0221927 -1.26256e-09)
(3.40038e-05 -0.0221927 1.37057e-09)
(0.000310045 -0.0627853 1.45256e-09)
(0.00031004 -0.0627852 7.56409e-10)
(0.000288015 -0.063159 1.49832e-09)
(0.00028801 -0.0631589 9.34495e-10)
(3.6556e-05 -0.0220548 4.73781e-09)
(3.65833e-05 -0.0220548 8.68002e-09)
(3.40056e-05 -0.0221927 4.58355e-09)
(3.4031e-05 -0.0221927 8.32599e-09)
(0.000310092 -0.0627852 4.87173e-08)
(0.000310401 -0.0627852 0.919615)
(0.000288058 -0.0631589 4.56563e-08)
(0.000288347 -0.0631589 0.919956)
(3.67788e-05 -0.0220548 -2.71277e-08)
(3.76239e-05 -0.0220547 0.90759)
(3.42133e-05 -0.0221927 -2.50657e-08)
(3.5001e-05 -0.0221926 0.907923)
(0.000358045 -0.0619635 -0.918278)
(0.000357693 -0.0619634 -5.49451e-08)
(0.000333635 -0.0623869 -0.918629)
(0.000333306 -0.0623869 -5.17387e-08)
(4.32547e-05 -0.0217516 -0.906286)
(4.22868e-05 -0.0217516 3.17374e-08)
(4.03722e-05 -0.0219077 -0.906628)
(3.9467e-05 -0.0219078 2.94187e-08)
(0.000357635 -0.0619635 -3.14805e-10)
(0.000357641 -0.0619635 -1.346e-09)
(0.000333251 -0.062387 -5.44355e-10)
(0.000333256 -0.062387 -1.3896e-09)
(4.20629e-05 -0.0217517 -9.35387e-09)
(4.20318e-05 -0.0217517 -5.03718e-09)
(3.92577e-05 -0.0219078 -8.96813e-09)
(3.92285e-05 -0.0219079 -4.82598e-09)
(0.000357646 -0.0619636 -8.76015e-10)
(0.000357646 -0.0619636 8.1336e-10)
(0.000333261 -0.0623871 -8.42784e-10)
(0.000333261 -0.0623871 8.43924e-10)
(4.20297e-05 -0.0217517 -1.41875e-09)
(4.20297e-05 -0.0217517 1.4068e-09)
(3.92265e-05 -0.0219079 -1.33974e-09)
(3.92265e-05 -0.0219079 1.41418e-09)
(0.000357641 -0.0619635 1.29465e-09)
(0.000357635 -0.0619635 3.21315e-10)
(0.000333256 -0.062387 1.38724e-09)
(0.000333251 -0.062387 5.48868e-10)
(4.20318e-05 -0.0217517 5.0066e-09)
(4.20629e-05 -0.0217517 9.3424e-09)
(3.92285e-05 -0.0219079 4.88422e-09)
(3.92576e-05 -0.0219078 9.01083e-09)
(0.000357693 -0.0619634 5.50806e-08)
(0.000358045 -0.0619635 0.918278)
(0.000333306 -0.0623869 5.17652e-08)
(0.000333635 -0.062387 0.918629)
(4.22867e-05 -0.0217516 -3.17296e-08)
(4.32547e-05 -0.0217516 0.906286)
(3.9467e-05 -0.0219078 -2.9416e-08)
(4.03722e-05 -0.0219078 0.906628)
(0.000410466 -0.0610361 -0.916913)
(0.000410068 -0.0610361 -6.18823e-08)
(0.000383662 -0.0615134 -0.917281)
(0.000383287 -0.0615133 -5.83965e-08)
(4.94014e-05 -0.0214098 -0.904954)
(4.82998e-05 -0.0214098 3.67579e-08)
(4.62618e-05 -0.0215856 -0.905313)
(4.52284e-05 -0.0215857 3.41489e-08)
(0.000410002 -0.0610361 2.0879e-10)
(0.000410009 -0.0610362 -1.14116e-09)
(0.000383225 -0.0615134 -1.01954e-10)
(0.000383231 -0.0615134 -1.26392e-09)
(4.80452e-05 -0.0214099 -1.00636e-08)
(4.80099e-05 -0.0214099 -5.35638e-09)
(4.49895e-05 -0.0215857 -9.73234e-09)
(4.49563e-05 -0.0215857 -5.19563e-09)
(0.000410015 -0.0610362 -8.4299e-10)
(0.000410015 -0.0610362 7.88681e-10)
(0.000383237 -0.0615135 -8.63609e-10)
(0.000383237 -0.0615135 7.99128e-10)
(4.80074e-05 -0.0214099 -1.50824e-09)
(4.80074e-05 -0.0214099 1.40416e-09)
(4.4954e-05 -0.0215858 -1.46456e-09)
(4.4954e-05 -0.0215858 1.39907e-09)
(0.000410009 -0.0610362 1.08944e-09)
(0.000410002 -0.0610361 -1.84201e-10)
(0.000383231 -0.0615135 1.19276e-09)
(0.000383225 -0.0615134 7.19771e-11)
(4.80099e-05 -0.0214099 5.25503e-09)
(4.80452e-05 -0.0214099 1.00183e-08)
(4.49563e-05 -0.0215857 5.13745e-09)
(4.49894e-05 -0.0215857 9.68859e-09)
(0.000410068 -0.0610361 6.19807e-08)
(0.000410466 -0.0610361 0.916913)
(0.000383287 -0.0615133 5.84022e-08)
(0.000383662 -0.0615134 0.917281)
(4.82998e-05 -0.0214099 -3.67194e-08)
(4.94014e-05 -0.0214098 0.904954)
(4.52283e-05 -0.0215857 -3.41834e-08)
(4.62618e-05 -0.0215856 0.905313)
(0.000467635 -0.0599961 -0.915497)
(0.000467188 -0.0599961 -6.92746e-08)
(0.000438466 -0.0605306 -0.915867)
(0.000438044 -0.0605305 -6.54907e-08)
(5.60449e-05 -0.0210269 -0.903572)
(5.47994e-05 -0.021027 4.21445e-08)
(5.26594e-05 -0.0212236 -0.903934)
(5.1487e-05 -0.0212237 3.93472e-08)
(0.000467114 -0.0599961 8.34028e-10)
(0.000467122 -0.0599962 -8.60899e-10)
(0.000437974 -0.0605306 5.02637e-10)
(0.000437981 -0.0605306 -1.00829e-09)
(5.45117e-05 -0.021027 -1.07865e-08)
(5.44718e-05 -0.021027 -5.63674e-09)
(5.12162e-05 -0.0212237 -1.04592e-08)
(5.11786e-05 -0.0212237 -5.50954e-09)
(0.000467129 -0.0599962 -7.49173e-10)
(0.000467129 -0.0599962 8.20242e-10)
(0.000437988 -0.0605307 -8.07315e-10)
(0.000437988 -0.0605307 7.77928e-10)
(5.44689e-05 -0.021027 -1.51989e-09)
(5.4469e-05 -0.021027 1.49613e-09)
(5.11759e-05 -0.0212237 -1.54627e-09)
(5.11759e-05 -0.0212237 1.39862e-09)
(0.000467122 -0.0599962 9.36374e-10)
(0.000467114 -0.0599961 -6.97208e-10)
(0.000437981 -0.0605306 9.79778e-10)
(0.000437974 -0.0605306 -4.60422e-10)
(5.44718e-05 -0.021027 5.62783e-09)
(5.45117e-05 -0.021027 1.08222e-08)
(5.11786e-05 -0.0212237 5.39083e-09)
(5.12162e-05 -0.0212237 1.0354e-08)
(0.000467188 -0.0599961 6.93896e-08)
(0.000467635 -0.0599962 0.915497)
(0.000438044 -0.0605305 6.55586e-08)
(0.000438466 -0.0605306 0.915867)
(5.47994e-05 -0.021027 -4.20724e-08)
(5.6045e-05 -0.0210269 0.903572)
(5.1487e-05 -0.0212237 -3.94354e-08)
(5.26594e-05 -0.0212236 0.903934)
(0.00052943 -0.0588368 -0.914031)
(0.00052893 -0.0588367 -7.72287e-08)
(0.000497972 -0.0594317 -0.914415)