/*--------------------------------*- C++ -*----------------------------------*\
  =========                 |
  \\      /  F ield         | OpenFOAM: The Open Source CFD Toolbox
   \\    /   O peration     | Website:  https://openfoam.org
    \\  /    A nd           | Version:  9
     \\/     M anipulation  |
\*---------------------------------------------------------------------------*/
FoamFile
{
    format      ascii;
    class       volScalarField;
    location    "3.5";
    object      epsilon;
}
// * * * * * * * * * * * * * * * * * * * * * * * * * * * * * * * * * * * * * //

dimensions      [0 2 -3 0 0 0 0];

internalField   nonuniform List<scalar> 
36360
(
0.368405
0.293241
0.178491
0.155145
0.166804
0.125112
0.0274877
0.0319213
0.106154
0.0322742
0.0372657
0.00912894
0.0369728
0.00976536
0.00945164
0.00516846
0.0104378
0.0104401
0.00459491
0.00459555
0.00455112
0.00455335
0.00473284
0.00473253
0.032276
0.10614
0.00913044
0.0372673
0.00977158
0.0369837
0.00516933
0.00945408
0.293215
0.36839
0.15514
0.178491
0.125109
0.166789
0.0319264
0.0274881
0.613426
0.490548
0.506718
0.40215
0.461815
0.338277
0.323203
0.232522
0.236039
0.118651
0.173453
0.0729446
0.168668
0.0816911
0.0977025
0.0323033
0.0728921
0.0728855
0.0347938
0.0347936
0.0473739
0.0473793
0.0133581
0.0133631
0.118624
0.235981
0.0729336
0.173419
0.0816923
0.16864
0.0323173
0.0977025
0.490465
0.613355
0.402098
0.506678
0.338193
0.461685
0.232487
0.323141
0.781517
0.636708
0.702847
0.56746
0.70178
0.537105
0.586101
0.439443
0.350602
0.212773
0.294928
0.16591
0.31957
0.206393
0.24344
0.141907
0.157289
0.157269
0.114694
0.114681
0.161368
0.161356
0.101755
0.101752
0.212709
0.350486
0.165866
0.294842
0.206344
0.319454
0.141885
0.243372
0.636552
0.781376
0.567342
0.702742
0.536884
0.701472
0.439295
0.585888
0.917516
0.758763
0.852556
0.70017
0.914787
0.722263
0.811025
0.631377
0.452744
0.30172
0.403217
0.258225
0.470042
0.337475
0.395425
0.272057
0.239674
0.239641
0.199199
0.199172
0.283697
0.283665
0.222505
0.222483
0.301616
0.452566
0.258141
0.40307
0.337365
0.469817
0.271979
0.395256
0.758532
0.917303
0.699977
0.852377
0.721878
0.91427
0.631076
0.810613
1.03122
0.862727
0.976907
0.812868
1.10516
0.891313
1.01283
0.808996
0.542443
0.381783
0.499198
0.343011
0.61165
0.463199
0.54231
0.401409
0.314855
0.314809
0.278353
0.278314
0.401972
0.401918
0.343736
0.343692
0.381641
0.542207
0.342888
0.49899
0.463022
0.611309
0.401266
0.542027
0.862425
1.03095
0.812602
0.976662
0.890757
1.10442
0.808525
1.0122
1.12569
0.950141
1.08076
0.908472
1.27068
1.04028
1.19105
0.968395
0.61927
0.451373
0.582514
0.417978
0.738768
0.577475
0.677199
0.521975
0.380758
0.3807
0.349076
0.349024
0.510164
0.510088
0.45754
0.457475
0.451198
0.61898
0.417819
0.582249
0.577231
0.738313
0.521764
0.6768
0.949778
1.12536
0.908139
1.08046
1.03955
1.26973
0.967754
1.1902
1.20258
1.02185
1.16626
0.987922
1.41004
1.16695
1.34352
1.10634
0.683189
0.509888
0.652865
0.482067
0.848294
0.676825
0.795757
0.629075
0.436507
0.436438
0.409966
0.409903
0.604686
0.60459
0.559205
0.559119
0.509683
0.682853
0.481876
0.652551
0.676519
0.847732
0.6288
0.795248
1.02144
1.2022
0.98753
1.16591
1.16607
1.4089
1.10554
1.34247
1.26357
1.0791
1.23499
1.05224
1.52374
1.27107
1.46989
1.22167
0.734796
0.55752
0.710535
0.53509
0.939203
0.759834
0.895992
0.720318
0.482091
0.482014
0.460604
0.460532
0.683948
0.683833
0.646182
0.646076
0.557288
0.734419
0.534871
0.710178
0.759471
0.938545
0.719982
0.895381
1.07864
1.26315
1.0518
1.2346
1.27005
1.52242
1.22072
1.46866
1.31044
1.12336
1.2887
1.10281
1.61341
1.35367
1.5713
1.31482
0.775103
0.594978
0.756354
0.57753
1.01187
0.826529
0.977647
0.79508
0.518071
0.517986
0.501298
0.501217
0.74781
0.747679
0.717674
0.717551
0.594724
0.774693
0.577286
0.75596
0.826116
1.01113
0.794691
0.976946
1.12286
1.31
1.10232
1.28827
1.35254
1.61194
1.31374
1.5699
1.34516
1.15634
1.32927
1.14122
1.68159
1.41678
1.64988
1.38738
0.805451
0.623363
0.791517
0.610312
1.06774
0.878032
1.04168
0.853985
0.545426
0.545335
0.532839
0.532751
0.797237
0.797091
0.774143
0.774004
0.623091
0.805013
0.610048
0.791092
0.877578
1.06693
0.853551
1.0409
1.15581
1.34469
1.14071
1.32881
1.41554
1.67999
1.38619
1.64833
1.3696
1.17974
1.35862
1.16921
1.73116
1.46287
1.70837
1.44164
0.827271
0.643925
0.817428
0.634633
1.10881
0.916038
1.08987
0.898495
0.565312
0.565215
0.556317
0.556223
0.833786
0.83363
0.816902
0.816751
0.643638
0.826811
0.634353
0.816977
0.915549
1.10793
0.898023
1.08903
1.17919
1.36911
1.16866
1.35814
1.46154
1.72945
1.44035
1.7067
1.38559
1.19526
1.37864
1.18848
1.76513
1.4946
1.74976
1.48021
0.842017
0.657967
0.835546
0.651785
1.13731
0.942545
1.12437
0.930492
0.578956
0.578856
0.57294
0.572842
0.859341
0.859175
0.847708
0.847547
0.657668
0.841539
0.651492
0.835076
0.942029
1.13639
0.929989
1.12347
1.19468
1.3851
1.18791
1.37814
1.49321
1.76334
1.47885
1.748
1.39477
1.20439
1.39103
1.20063
1.78633
1.51457
1.777
1.50574
0.851029
0.666713
0.847272
0.663039
1.15547
0.959567
1.14743
0.952005
0.587526
0.587423
0.583914
0.583812
0.875812
0.87564
0.868481
0.868312
0.666406
0.850539
0.662736
0.846787
0.959032
1.15452
0.951479
1.14649
1.20381
1.39427
1.20005
1.39053
1.51313
1.78448
1.50433
1.77517
1.39855
1.2085
1.39736
1.20711
1.79736
1.52513
1.79281
1.52073
0.855508
0.671268
0.853887
0.66957
1.16537
0.969
1.16122
0.965008
0.592079
0.591974
0.590359
0.590255
0.88501
0.884833
0.8811
0.880925
0.670956
0.85501
0.66926
0.853392
0.968451
1.1644
0.964465
1.16025
1.2079
1.39804
1.20651
1.39685
1.52366
1.79547
1.51927
1.79093
1.39814
1.20868
1.39889
1.20911
1.80025
1.52817
1.79957
1.52734
0.856444
0.672548
0.856487
0.672392
1.16872
0.972443
1.16767
0.971276
0.593491
0.593385
0.593252
0.593146
0.888481
0.888302
0.887267
0.88709
0.672233
0.855942
0.672078
0.855986
0.971886
1.16774
0.970723
1.16669
1.20808
1.39763
1.20851
1.39838
1.52668
1.79833
1.52586
1.79766
1.39453
1.20593
1.39682
1.20776
1.79736
1.52586
1.79945
1.52757
0.854795
0.671453
0.856048
0.672389
1.16733
0.971492
1.16847
0.972338
0.59263
0.592523
0.593426
0.59332
0.887717
0.887537
0.888436
0.888257
0.671137
0.854292
0.672074
0.855545
0.970932
1.16634
0.97178
1.16748
1.20533
1.39402
1.20716
1.39632
1.52436
1.79543
1.52608
1.79753
1.38835
1.20081
1.39184
1.20374
1.78948
1.51895
1.79376
1.52271
0.851008
0.668391
0.853255
0.670254
1.16194
0.966905
1.16491
0.969455
0.589889
0.589783
0.59158
0.591474
0.883493
0.883313
0.885851
0.885671
0.668075
0.850506
0.669939
0.852752
0.966345
1.16095
0.968894
1.16392
1.20021
1.38785
1.20314
1.39133
1.51745
1.78756
1.52121
1.79183
1.38021
1.1939
1.38462
1.19767
1.77798
1.50872
1.78398
1.51404
0.845654
0.663901
0.848639
0.666435
1.15369
0.959712
1.15801
0.963481
0.58579
0.585684
0.588118
0.588012
0.876774
0.876595
0.880292
0.880113
0.663588
0.845155
0.666121
0.848139
0.959156
1.1527
0.962923
1.15702
1.19331
1.37971
1.19708
1.38412
1.50723
1.77607
1.51255
1.78205
1.37046
1.18557
1.37563
1.19002
1.7636
1.49585
1.77096
1.50242
0.839063
0.658297
0.842633
0.661357
1.14318
0.950475
1.14857
0.955207
0.580633
0.580529
0.583459
0.583354
0.868107
0.86793
0.872543
0.872365
0.657986
0.83857
0.661045
0.842137
0.949924
1.14221
0.954653
1.14759
1.18498
1.36997
1.18943
1.37514
1.49438
1.76171
1.50094
1.76905
1.35937
1.17606
1.36519
1.18107
1.74687
1.48085
1.75535
1.48844
0.83147
0.651793
0.835519
0.655282
1.13086
0.939601
1.13711
0.945112
0.574628
0.574525
0.577858
0.577755
0.857884
0.857709
0.863059
0.862884
0.651487
0.830984
0.654974
0.835029
0.939059
1.1299
0.944565
1.13614
1.17549
1.35889
1.18049
1.36471
1.4794
1.745
1.48698
1.75346
1.34711
1.16554
1.35351
1.17105
1.72814
1.46403
1.73759
1.4725
0.823024
0.644535
0.827485
0.648388
1.11703
0.927365
1.12401
0.933532
0.567915
0.567813
0.571486
0.571384
0.846367
0.846195
0.852165
0.851992
0.644234
0.822545
0.648084
0.827002
0.926832
1.11608
0.932994
1.12305
1.16498
1.34664
1.17047
1.35303
1.46261
1.7263
1.47106
1.73573
1.33378
1.15411
1.3407
1.16006
1.70763
1.44562
1.71795
1.45487
0.81382
0.636612
0.818651
0.640788
1.10186
0.913941
1.10949
0.920688
0.560579
0.56048
0.564453
0.564352
0.833724
0.833556
0.840071
0.839902
0.636317
0.81335
0.64049
0.818177
0.913418
1.10093
0.92016
1.10856
1.15356
1.33332
1.1595
1.34023
1.44422
1.70583
1.45346
1.71613
1.31943
1.14183
1.32685
1.1482
1.68548
1.42574
1.69661
1.43572
0.803916
0.628079
0.809092
0.632555
1.08548
0.899434
1.09371
0.906715
0.552674
0.552577
0.556827
0.556729
0.820056
0.819891
0.82691
0.826743
0.627789
0.803456
0.632262
0.808627
0.898922
1.08457
0.906198
1.09279
1.14128
1.31898
1.14765
1.32639
1.42437
1.68372
1.43433
1.69483
1.30411
1.12872
1.31201
1.1355
1.66176
1.40445
1.67368
1.41513
0.793342
0.618962
0.79885
0.623727
1.06795
0.883898
1.07675
0.891692
0.544227
0.544131
0.548648
0.548552
0.805416
0.805256
0.812754
0.812592
0.618678
0.792891
0.62344
0.798394
0.883399
1.06706
0.891187
1.07586
1.12819
1.30366
1.13496
1.31157
1.40311
1.66004
1.41378
1.67193
1.28781
1.11481
1.2962
1.12199
1.6365
1.38178
1.64919
1.39315
0.782107
0.609272
0.787943
0.614322
1.04928
0.867356
1.05865
0.875655
0.535247
0.535153
0.539933
0.539839
0.789826
0.78967
0.797642
0.797483
0.608995
0.781667
0.614041
0.787498
0.866869
1.04841
0.875163
1.05778
1.11429
1.28738
1.12146
1.29576
1.38048
1.63482
1.39183
1.64749
1.27056
1.10009
1.27943
1.10767
1.60969
1.35772
1.62316
1.36979
0.770209
0.599004
0.776377
0.604343
1.02947
0.849799
1.03942
0.858611
0.525728
0.525637
0.530684
0.530592
0.773278
0.773126
0.781578
0.781424
0.598734
0.769779
0.604069
0.775942
0.849326
1.02863
0.858132
1.03857
1.09958
1.27014
1.10715
1.279
1.35646
1.60806
1.36851
1.6215
1.25234
1.08454
1.26169
1.09254
1.58131
1.33225
1.59558
1.34504
0.75763
0.58814
0.76414
0.593779
1.00848
0.831193
1.01903
0.840539
0.515653
0.515564
0.520888
0.520799
0.75574
0.755593
0.764544
0.764394
0.587877
0.757212
0.593512
0.763716
0.830735
1.00766
0.840074
1.0182
1.08405
1.25193
1.09204
1.26127
1.33102
1.57973
1.34379
1.59397
1.23313
1.06815
1.24298
1.07657
1.55127
1.30527
1.56638
1.31883
0.744337
0.576646
0.751207
0.582602
0.986247
0.811479
0.997433
0.821392
0.504988
0.504902
0.510521
0.510434
0.737155
0.737013
0.746495
0.74635
0.57639
0.743932
0.582343
0.750795
0.811036
0.985459
0.820941
0.996632
1.06768
1.23274
1.07609
1.24257
1.30408
1.54974
1.31762
1.56482
1.21291
1.05087
1.22327
1.05974
1.51948
1.27668
1.53549
1.29106
0.73028
0.564471
0.737537
0.570773
0.962673
0.790564
0.974549
0.801094
0.493682
0.493598
0.49954
0.499456
0.717437
0.717301
0.72736
0.72722
0.564223
0.729888
0.570521
0.737138
0.790138
0.961914
0.80066
0.973775
1.05041
1.21253
1.05927
1.22288
1.27553
1.518
1.28989
1.53398
1.19162
1.03261
1.20251
1.04198
1.4858
1.2464
1.50278
1.26164
0.715385
0.551542
0.723069
0.558229
0.937635
0.768329
0.950263
0.779541
0.481664
0.481583
0.487886
0.487804
0.696469
0.696338
0.707037
0.706903
0.551303
0.715006
0.557985
0.722683
0.767919
0.936905
0.779123
0.949519
1.03216
1.19125
1.04152
1.20214
1.2453
1.48438
1.26051
1.50132
1.16917
1.01328
1.18065
1.02319
1.45003
1.21425
1.46809
1.23047
0.699551
0.537762
0.707715
0.544885
0.910946
0.744603
0.924432
0.756588
0.468838
0.468761
0.475474
0.475396
0.674089
0.673964
0.68539
0.685262
0.537532
0.699186
0.54465
0.707343
0.744211
0.910248
0.756188
0.923718
1.01285
1.16882
1.02275
1.18029
1.21319
1.44867
1.22939
1.46669
1.14546
0.992771
1.15758
1.00328
1.41187
1.1799
1.43117
1.19726
0.68265
0.523003
0.691362
0.530629
0.882367
0.719172
0.896835
0.732043
0.455081
0.455007
0.462196
0.462121
0.650098
0.64998
0.662236
0.662114
0.522783
0.6823
0.530404
0.691004
0.718801
0.881703
0.731661
0.896154
0.99236
1.14512
1.00286
1.15724
1.17889
1.41057
1.19623
1.42983
1.12034
0.970911
1.13318
0.982118
1.37098
1.14306
1.3917
1.16171
0.664519
0.50711
0.673864
0.51532
0.851618
0.691784
0.867213
0.705672
0.44024
0.44017
0.447914
0.447842
0.624255
0.624143
0.637356
0.63724
0.5069
0.664185
0.515105
0.673522
0.691433
0.85099
0.705311
0.866567
0.970519
1.12001
0.981716
1.13285
1.14211
1.36975
1.16073
1.39043
1.09361
0.947503
1.10728
0.959506
1.32693
1.10336
1.3493
1.1235
0.644962
0.489892
0.655041
0.498786
0.818371
0.66214
0.835262
0.6772
0.424132
0.424065
0.43246
0.432391
0.596277
0.596173
0.610487
0.610379
0.489693
0.644645
0.498581
0.654716
0.661813
0.817782
0.676861
0.834654
0.947132
1.0933
0.959124
1.10696
1.10247
1.32578
1.12257
1.3481
1.06507
0.922327
1.07966
0.935237
1.27921
1.06042
1.30348
1.08224
0.623747
0.471119
0.634681
0.480817
0.782251
0.629894
0.800633
0.646307
0.406524
0.406462
0.415629
0.415565
0.565832
0.565736
0.581326
0.581226
0.470932
0.62345
0.480624
0.634374
0.629592
0.781706
0.645992
0.800067
0.921978
1.06478
0.934876
1.07937
1.05959
1.27813
1.08137
1.30236
1.03459
0.895183
1.05015
0.909091
1.22726
1.01386
1.25371
1.03753
0.600592
0.450475
0.612532
0.461151
0.742818
0.594614
0.762923
0.61261
0.387102
0.387044
0.397157
0.397097
0.532505
0.532418
0.549503
0.549412
0.450302
0.600315
0.460971
0.612245
0.59434
0.742321
0.612322
0.762402
0.894857
1.03432
0.908753
1.04987
1.0131
1.22627
1.03674
1.25267
1.00254
0.865866
1.01877
0.880895
1.17095
0.963485
1.19954
0.98908
0.574967
0.427402
0.58824
0.439386
0.69942
0.555673
0.721624
0.575603
0.365354
0.365301
0.376648
0.376592
0.495753
0.495676
0.514544
0.514463
0.427244
0.574712
0.439219
0.587974
0.55543
0.698976
0.575344
0.721154
0.865566
1.0023
0.880582
1.01851
0.962798
1.17006
0.988354
1.19859
0.971974
0.832683
0.986641
0.850153
1.11293
0.908545
1.14161
0.936713
0.544827
0.400555
0.560829
0.414671
0.65024
0.511998
0.675732
0.534468
0.340419
0.340372
0.353429
0.353379
0.455013
0.454949
0.475853
0.475782
0.400413
0.544597
0.41452
0.560587
0.511791
0.649857
0.534243
0.675318
0.832409
0.971749
0.849866
0.986406
0.907943
1.11214
0.936067
1.14076
0.965715
0.774366
0.96249
0.811179
1.062
0.828617
1.08692
0.87575
0.501323
0.367284
0.525899
0.384953
0.588763
0.462652
0.62168
0.487931
0.311449
0.311408
0.326517
0.326473
0.410848
0.410795
0.43316
0.433101
0.36716
0.501121
0.384819
0.525682
0.462481
0.588447
0.487742
0.62133
0.774121
0.965504
0.810919
0.962275
0.828119
1.06133
0.875196
1.08618
0.552884
0.440772
0.326737
0.264183
0.47869
0.380067
0.266343
0.216834
0.199051
0.0852464
0.0901935
0.0245718
0.158501
0.0600833
0.0653571
0.0157021
0.0392814
0.0392796
0.00935612
0.00935764
0.0234395
0.0234403
0.00648948
0.00649067
0.085226
0.199001
0.024574
0.0901728
0.0600751
0.158468
0.0157036
0.0653494
0.440706
0.552845
0.264143
0.326711
0.380021
0.478664
0.216813
0.266331
0.834505
0.680242
0.71332
0.57452
0.741202
0.599131
0.628352
0.502495
0.379794
0.222425
0.295281
0.154302
0.315611
0.173544
0.241894
0.116373
0.155869
0.155849
0.0959043
0.0958927
0.115221
0.115207
0.0657907
0.0657848
0.222361
0.379689
0.15426
0.295204
0.173498
0.315528
0.116346
0.241837
0.680124
0.834426
0.574428
0.71326
0.59903
0.741129
0.502422
0.628303
1.01804
0.846969
0.933687
0.769441
0.913531
0.753028
0.833939
0.681124
0.524177
0.348183
0.45556
0.287297
0.443539
0.281973
0.382371
0.229049
0.271686
0.271652
0.215033
0.215006
0.213803
0.213775
0.165135
0.165114
0.348082
0.524023
0.287214
0.455429
0.281889
0.443402
0.228983
0.382261
0.846809
1.01793
0.7693
0.933593
0.752872
0.913415
0.680995
0.833843
1.1559
0.976641
1.09133
0.915502
1.04576
0.875294
0.983437
0.817293
0.643563
0.457521
0.58667
0.404972
0.551851
0.378871
0.499917
0.332011
0.37521
0.375165
0.325223
0.325184
0.304531
0.304492
0.260452
0.260418
0.45739
0.643371
0.404855
0.586495
0.378752
0.551666
0.331909
0.499754
0.976454
1.15579
0.915325
1.09122
0.875091
1.04561
0.817112
0.983304
1.2641
1.08046
1.21319
1.03142
1.15221
0.975416
1.10181
0.927857
0.742347
0.550351
0.695404
0.506018
0.643415
0.462891
0.599674
0.422562
0.46436
0.464307
0.421666
0.421617
0.384312
0.384262
0.345914
0.345869
0.550199
0.742132
0.505876
0.695199
0.462743
0.64319
0.422428
0.599468
1.08026
1.264
1.03123
1.21308
0.975177
1.15204
0.927634
1.10166
1.34944
1.16344
1.30935
1.12436
1.23796
1.057
1.19748
1.0184
0.823008
0.627406
0.784867
0.590847
0.719511
0.533833
0.683372
0.500034
0.539041
0.538982
0.50354
0.503484
0.452278
0.452219
0.419835
0.419781
0.627241
0.822778
0.590688
0.784643
0.533662
0.719255
0.499873
0.68313
1.16325
1.34937
1.12416
1.30926
1.05674
1.23779
1.01815
1.19731
1.41605
1.22886
1.38491
1.19822
1.30604
1.12234
1.27408
1.09162
0.887631
0.689893
0.857272
0.660464
0.781361
0.592157
0.752199
0.564593
0.600006
0.599944
0.571252
0.571191
0.508515
0.50845
0.481901
0.481838
0.689718
0.887395
0.660293
0.857039
0.591967
0.78108
0.564412
0.75193
1.22868
1.416
1.19803
1.38485
1.12206
1.30587
1.09134
1.27391
1.46704
1.27938
1.44338
1.2559
1.35893
1.17347
1.3343
1.14962
0.93825
0.739329
0.914661
0.716241
0.830375
0.638803
0.807461
0.616954
0.648496
0.648431
0.625822
0.625758
0.553719
0.553648
0.532522
0.532453
0.739149
0.938013
0.716063
0.914424
0.638597
0.830075
0.616756
0.80717
1.27921
1.46703
1.25572
1.44335
1.17318
1.35877
1.14933
1.33413
1.50496
1.31729
1.48755
1.29985
1.3988
1.2123
1.38042
1.19437
0.9768
0.777336
0.959019
0.759768
0.868065
0.674973
0.85063
0.658211
0.685956
0.685889
0.668621
0.668555
0.588925
0.588849
0.572593
0.57252
0.777152
0.976564
0.759586
0.958782
0.674756
0.867751
0.658
0.850323
1.31713
1.50498
1.29968
1.48755
1.212
1.39864
1.19407
1.38026
1.53207
1.34469
1.51981
1.33227
1.42773
1.24071
1.41459
1.22778
1.00517
0.805602
0.992267
0.79271
0.896045
0.702062
0.883279
0.689677
0.713954
0.713885
0.701167
0.701099
0.615404
0.615325
0.603284
0.603206
0.805416
1.00494
0.792525
0.992032
0.701836
0.895721
0.689454
0.882959
1.34455
1.53213
1.33212
1.51986
1.24041
1.42759
1.22748
1.41444
1.55031
1.36345
1.54227
1.35514
1.44758
1.26044
1.43877
1.25165
1.0251
0.825727
1.01622
0.816722
0.915873
0.72147
0.907002
0.712761
0.734011
0.733942
0.725019
0.72495
0.634474
0.634391
0.625904
0.625823
0.82554
1.02487
0.816535
1.01599
0.721237
0.91554
0.712531
0.906672
1.36332
1.5504
1.355
1.54234
1.26014
1.44745
1.25134
1.43863
1.56141
1.3752
1.55676
1.37021
1.46006
1.27311
1.45475
1.26767
1.03816
0.839203
1.03254
0.833357
0.929023
0.734559
0.923328
0.728858
0.747567
0.747497
0.741665
0.741596
0.647428
0.647344
0.64177
0.641687
0.839017
1.03793
0.833171
1.03231
0.73432
0.928684
0.728621
0.922991
1.37509
1.56152
1.37009
1.55686
1.27281
1.45993
1.26737
1.45462
1.56679
1.38137
1.56483
1.37901
1.46661
1.28011
1.46409
1.27735
1.04572
0.847344
1.0427
0.844019
0.936803
0.742555
0.933645
0.739262
0.755896
0.755826
0.752465
0.752396
0.655449
0.655363
0.652125
0.65204
0.847158
1.0455
0.843833
1.04247
0.742312
0.936461
0.739021
0.933305
1.38127
1.56692
1.37891
1.56495
1.2798
1.46649
1.27704
1.46397
1.56768
1.38315
1.56784
1.38286
1.46849
1.28264
1.46818
1.28198
1.04897
0.851285
1.04797
0.849937
0.940355
0.746536
0.939189
0.745134
0.760108
0.760039
0.758616
0.758546
0.659578
0.659491
0.658087
0.658001
0.8511
1.04875
0.849752
1.04775
0.746291
0.940012
0.74489
0.938846
1.38306
1.56783
1.38276
1.56797
1.28234
1.46838
1.28168
1.46806
1.56513
1.38157
1.5669
1.38285
1.4668
1.28176
1.46815
1.28268
1.04888
0.851971
1.04943
0.852145
0.940642
0.747398
0.940994
0.747458
0.761117
0.761048
0.761129
0.76106
0.660677
0.66059
0.66061
0.660523
0.851787
1.04866
0.85196
1.04922
0.747153
0.940298
0.747213
0.940651
1.38149
1.56529
1.38276
1.56706
1.28146
1.4667
1.28238
1.46804
1.55981
1.37734
1.56288
1.37987
1.46227
1.2782
1.46497
1.2804
1.04622
0.850201
1.04799
0.851521
0.938449
0.74595
0.939972
0.747083
0.759746
0.759677
0.760861
0.760792
0.65955
0.659463
0.660508
0.660421
0.850019
1.046
0.851338
1.04778
0.745705
0.938107
0.746837
0.939629
1.37726
1.55998
1.37979
1.56305
1.27791
1.46217
1.2801
1.46487
1.55234
1.37104
1.55643
1.37454
1.45551
1.27256
1.45926
1.27574
1.04155
0.846475
1.04427
0.84872
0.934291
0.742631
0.936738
0.744647
0.756453
0.756385
0.758476
0.758407
0.656611
0.656524
0.658428
0.658341
0.846295
1.04134
0.848539
1.04406
0.742387
0.933952
0.744402
0.936397
1.37097
1.55251
1.37446
1.5566
1.27227
1.45542
1.27544
1.45916
1.54313
1.36311
1.54804
1.36738
1.447
1.2653
1.45158
1.26924
1.03532
0.841263
1.03877
0.844206
0.928637
0.737916
0.931787
0.740587
0.751715
0.751647
0.754415
0.754348
0.652328
0.652243
0.654775
0.654688
0.841086
1.03512
0.844027
1.03857
0.737674
0.928301
0.740344
0.931449
1.36304
1.54331
1.36731
1.54822
1.26502
1.44691
1.26895
1.45149
1.53248
1.35385
1.53808
1.35875
1.43704
1.25673
1.4423
1.26129
1.02785
0.83488
1.03189
0.838376
0.921797
0.732106
0.925508
0.735294
0.745843
0.745777
0.749079
0.749012
0.646998
0.646913
0.649938
0.649853
0.834705
1.02765
0.8382
1.03169
0.731867
0.921465
0.735053
0.925174
1.35379
1.53266
1.35869
1.53826
1.25645
1.43695
1.26101
1.44222
1.5206
1.34349
1.5268
1.34892
1.42585
1.24707
1.43171
1.25216
1.01936
0.827543
1.02389
0.831494
0.913985
0.725406
0.918161
0.729018
0.739054
0.738989
0.742726
0.74266
0.640821
0.640737
0.644164
0.64408
0.82737
1.01916
0.83132
1.02369
0.725171
0.913658
0.728781
0.917832
1.34343
1.52079
1.34886
1.52698
1.2468
1.42577
1.25188
1.43163
1.50762
1.33214
1.51436
1.33805
1.41356
1.23646
1.41996
1.24201
1.00999
0.819394
1.01494
0.823736
0.905338
0.717954
0.909918
0.721928
0.73149
0.731426
0.735534
0.73547
0.633931
0.633849
0.637617
0.637534
0.819225
1.0098
0.823565
1.01475
0.717722
0.905017
0.721695
0.909594
1.33209
1.50781
1.338
1.51454
1.23619
1.41349
1.24173
1.41988
1.49362
1.3199
1.50086
1.32625
1.40026
1.22497
1.40715
1.23095
0.999826
0.810525
1.00517
0.815217
0.895945
0.709835
0.900889
0.714133
0.723241
0.723178
0.727618
0.727554
0.626413
0.626332
0.630404
0.630322
0.810359
0.999637
0.815049
1.00498
0.709607
0.89563
0.713903
0.90057
1.31985
1.4938
1.3262
1.50104
1.22471
1.40019
1.23068
1.40708
1.47863
1.30682
1.48635
1.31358
1.38599
1.21267
1.39336
1.21905
0.988924
0.80099
0.994628
0.806008
0.885856
0.701099
0.891142
0.7057
0.714362
0.7143
0.719047
0.718985
0.618318
0.618238
0.622591
0.622511
0.800828
0.98874
0.805844
0.994442
0.700876
0.885548
0.705474
0.89083
1.30677
1.47881
1.31353
1.48654
1.21242
1.38592
1.21879
1.39329
1.46269
1.29291
1.47089
1.30008
1.37079
1.19958
1.37862
1.20635
0.977313
0.790817
0.983367
0.79615
0.8751
0.691774
0.880715
0.696665
0.704881
0.70482
0.709863
0.709801
0.60967
0.609592
0.614216
0.614137
0.790658
0.977133
0.795989
0.983185
0.691555
0.874798
0.696444
0.88041
1.29286
1.46288
1.30003
1.47107
1.19933
1.37072
1.20609
1.37856
1.44582
1.27821
1.45448
1.28577
1.35466
1.18571
1.36296
1.19286
0.965005
0.780016
0.971405
0.78566
0.863687
0.681868
0.869628
0.687047
0.694806
0.694746
0.700082
0.700022
0.60048
0.600404
0.605295
0.605218
0.779861
0.96483
0.785503
0.971227
0.681654
0.863392
0.686831
0.869329
1.27816
1.44601
1.28573
1.45466
1.18547
1.3546
1.19262
1.36289
1.42803
1.2627
1.43714
1.27067
1.33763
1.17107
1.34637
1.17861
0.951996
0.768581
0.958745
0.774541
0.851614
0.671377
0.857884
0.676848
0.68413
0.684072
0.689705
0.689647
0.590741
0.590666
0.595829
0.595753
0.768429
0.951824
0.774387
0.958572
0.671168
0.851325
0.676636
0.857592
1.26266
1.42821
1.27062
1.43732
1.17083
1.33757
1.17837
1.34631
1.40933
1.24639
1.41889
1.25475
1.31968
1.15564
1.32888
1.16357
0.93827
0.756492
0.945377
0.762779
0.838864
0.660282
0.845472
0.666055
0.672832
0.672776
0.678719
0.678662
0.580433
0.580361
0.585806
0.585733
0.756343
0.938103
0.762629
0.945208
0.660078
0.838583
0.665849
0.845187
1.24635
1.4095
1.25471
1.41907
1.15541
1.31962
1.16333
1.32882
1.38971
1.22926
1.39973
1.23803
1.30082
1.13942
1.31047
1.14774
0.923801
0.743714
0.931281
0.750347
0.825414
0.648553
0.832373
0.654645
0.660876
0.660821
0.667094
0.667038
0.569525
0.569455
0.5752
0.575129
0.74357
0.923639
0.750201
0.931116
0.648354
0.82514
0.654444
0.832096
1.22922
1.38988
1.238
1.3999
1.13919
1.30077
1.14751
1.31042
1.36919
1.21129
1.37966
1.22049
1.28104
1.12237
1.29115
1.13111
0.908545
0.730197
0.916422
0.737204
0.811219
0.636139
0.818554
0.642577
0.648206
0.648152
0.654786
0.654731
0.557966
0.557898
0.563971
0.563901
0.730056
0.908387
0.737061
0.916261
0.635947
0.810953
0.642382
0.818284
1.21125
1.36935
1.22045
1.37982
1.12216
1.28098
1.13089
1.2911
1.34774
1.19246
1.35867
1.20208
1.26029
1.10444
1.27088
1.11363
0.892446
0.71587
0.900748
0.723288
0.796211
0.622973
0.803959
0.629794
0.634748
0.634695
0.641728
0.641675
0.545686
0.54562
0.552058
0.55199
0.715733
0.892292
0.723149
0.900592
0.622786
0.795954
0.629604
0.803697
1.19242
1.3479
1.20204
1.35883
1.10423
1.26024
1.11342
1.27083
1.32531
1.17271
1.33673
1.1828
1.23855
1.08554
1.24964
1.09521
0.875416
0.700635
0.884193
0.708516
0.780302
0.608959
0.788508
0.616213
0.620401
0.62035
0.627835
0.627784
0.53259
0.532526
0.539379
0.539313
0.700501
0.875266
0.708381
0.884041
0.608779
0.780053
0.616029
0.788255
1.17267
1.32546
1.18276
1.33689
1.08534
1.23849
1.09501
1.24959
1.30186
1.15192
1.3138
1.16253
1.21572
1.0656
1.22737
1.07581
0.857334
0.684365
0.866648
0.692776
0.763378
0.593978
0.772103
0.601728
0.605036
0.604987
0.612992
0.612942
0.518557
0.518495
0.525826
0.525763
0.684236
0.857188
0.692645
0.8665
0.593804
0.763138
0.60155
0.771859
1.15188
1.302
1.1625
1.31394
1.06541
1.21567
1.07561
1.22731
1.27731
1.13
1.2898
1.14119
1.19172
1.0445
1.20396
1.0553
0.838066
0.66691
0.847986
0.675929
0.745296
0.57788
0.754615
0.586204
0.588497
0.588449
0.597057
0.597008
0.503437
0.503377
0.511265
0.511205
0.666784
0.837924
0.675802
0.847842
0.577713
0.745065
0.586033
0.754379
1.12996
1.27744
1.14115
1.28994
1.04431
1.19167
1.0551
1.20391
1.25161
1.10685
1.26468
1.11866
1.16643
1.02208
1.17933
1.03355
0.817455
0.648086
0.828062
0.657809
0.725882
0.560483
0.735885
0.569475
0.57059
0.570544
0.579855
0.579808
0.487045
0.486988
0.495529
0.495471
0.647964
0.817316
0.657685
0.827921
0.560323
0.725661
0.569311
0.735659
1.10681
1.25173
1.11863
1.2648
1.0219
1.16638
1.03336
1.17928
1.22475
1.08241
1.23838
1.09487
1.13974
0.998208
1.15334
1.01041
0.795331
0.627667
0.80671
0.638214
0.704941
0.54156
0.715728
0.551342
0.551067
0.551023
0.561171
0.561125
0.469144
0.46909
0.478412
0.478356
0.627549
0.795196
0.638094
0.806573
0.541407
0.70473
0.551185
0.715512
1.08237
1.22486
1.09483
1.2385
0.998034
1.13969
1.01023
1.15329
1.19703
1.05673
1.21102
1.06978
1.11175
0.972806
1.12596
0.985773
0.771493
0.605312
0.783754
0.616877
0.682222
0.520781
0.69393
0.531537
0.529537
0.529494
0.540701
0.540658
0.44938
0.449329
0.459629
0.459577
0.605198
0.77136
0.616761
0.78362
0.520636
0.682021
0.531389
0.693724
1.05669
1.19712
1.06974
1.21112
0.972639
1.1117
0.985603
1.12591
1.16985
1.03013
1.18324
1.04359
1.08331
0.945874
1.09752
0.959605
0.745451
0.580291
0.758918
0.59332
0.65718
0.497477
0.670158
0.509614
0.505254
0.505212
0.517917
0.517875
0.427108
0.42706
0.438714
0.438664
0.580181
0.745319
0.593208
0.758785
0.497341
0.65699
0.509473
0.669963
1.03007
1.16993
1.04354
1.18333
0.945713
1.08326
0.959441
1.09747
1.15002
1.00178
1.15806
1.01649
1.0594
0.91599
1.07007
0.931679
0.714778
0.550663
0.731141
0.566357
0.627435
0.469921
0.643322
0.484503
0.476786
0.476746
0.491758
0.491718
0.401128
0.401084
0.414768
0.414722
0.550556
0.714646
0.566248
0.73101
0.469795
0.627255
0.484372
0.643137
1.00171
1.15008
1.01643
1.15814
0.915833
1.05935
0.931521
1.07002
1.17702
0.949185
1.15221
0.983551
1.07324
0.860777
1.05688
0.896388
0.66865
0.51269
0.695029
0.533016
0.5828
0.434782
0.608269
0.453565
0.442628
0.44259
0.460522
0.460484
0.370191
0.37015
0.38637
0.386328
0.512586
0.668517
0.53291
0.694896
0.434666
0.582633
0.453443
0.608095
0.949099
1.17705
0.983475
1.15226
0.86062
1.07316
0.896231
1.05681
0.645969
0.519303
0.40506
0.327847
0.606066
0.485291
0.371337
0.299818
0.25594
0.124835
0.128165
0.0440291
0.230703
0.106623
0.110875
0.0346778
0.0708066
0.0707973
0.0166144
0.0166144
0.05571
0.0557048
0.0127798
0.0127809
0.124793
0.255855
0.0440178
0.128116
0.106592
0.230636
0.0346745
0.110841
0.519199
0.645902
0.327768
0.405001
0.485205
0.606013
0.299759
0.371295
0.955622
0.788513
0.821015
0.668427
0.903161
0.741196
0.774661
0.627642
0.47133
0.298113
0.370121
0.212628
0.430642
0.263721
0.336987
0.186129
0.222737
0.222707
0.145582
0.145561
0.191869
0.191844
0.122556
0.122539
0.298021
0.471187
0.212558
0.370005
0.263643
0.430517
0.186073
0.336889
0.788364
0.95553
0.668298
0.820933
0.741061
0.903075
0.62753
0.77459
1.16141
0.979579
1.06681
0.890701
1.09838
0.920779
1.00872
0.837324
0.644425
0.45416
0.5623
0.37892
0.590352
0.40563
0.514581
0.337141
0.36904
0.368997
0.297858
0.29782
0.323902
0.323863
0.259568
0.259535
0.454035
0.644244
0.378809
0.562135
0.405516
0.590183
0.337043
0.514432
0.97941
1.16132
0.890539
1.06671
0.920613
1.09828
0.837171
1.00862
1.31469
1.12699
1.24322
1.05778
1.24391
1.05943
1.17596
0.994252
0.785849
0.587552
0.71875
0.52375
0.721188
0.527525
0.659027
0.469129
0.497294
0.497243
0.435673
0.435625
0.440332
0.440283
0.384297
0.384253
0.587408
0.785654
0.523613
0.718559
0.527387
0.720993
0.469001
0.658842
1.12683
1.31464
1.05761
1.24314
1.05926
1.24383
0.99408
1.17587
1.43267
1.24296
1.37747
1.18846
1.35662
1.16912
1.30378
1.11748
0.900868
0.69881
0.846469
0.645925
0.828215
0.629824
0.777509
0.581113
0.605764
0.605709
0.55406
0.554006
0.539432
0.539378
0.492112
0.49206
0.698661
0.900677
0.645777
0.846274
0.629672
0.82801
0.580967
0.777307
1.24283
1.43268
1.18831
1.37745
1.16896
1.35657
1.11731
1.30372
1.5239
1.33399
1.48126
1.29131
1.4444
1.2558
1.4033
1.21509
0.993232
0.78967
0.949745
0.746741
0.914687
0.713875
0.873907
0.674099
0.695166
0.695111
0.652842
0.652788
0.621611
0.621554
0.582645
0.582589
0.789524
0.993057
0.746592
0.94956
0.713718
0.914485
0.673944
0.873703
1.33391
1.52398
1.29121
1.48131
1.25566
1.4444
1.21494
1.40327
1.59384
1.40461
1.56129
1.37166
1.51215
1.32344
1.48057
1.29183
1.06617
0.862342
1.03203
0.828236
0.983351
0.781456
0.951167
0.749696
0.767162
0.767109
0.733322
0.733268
0.688138
0.68808
0.656827
0.656769
0.862204
1.06602
0.828094
1.03187
0.7813
0.983158
0.749539
0.950969
1.40458
1.59399
1.3716
1.56141
1.32334
1.51221
1.29171
1.4806
1.64654
1.4584
1.62219
1.43348
1.56352
1.37524
1.53975
1.35121
1.12263
0.919205
1.09641
0.892724
1.03674
0.834561
1.01191
0.809803
0.823812
0.823762
0.797396
0.797344
0.740703
0.740645
0.716165
0.716107
0.919078
1.12251
0.892592
1.09627
0.834407