/*--------------------------------*- C++ -*----------------------------------*\
  =========                 |
  \\      /  F ield         | OpenFOAM: The Open Source CFD Toolbox
   \\    /   O peration     | Website:  https://openfoam.org
    \\  /    A nd           | Version:  9
     \\/     M anipulation  |
\*---------------------------------------------------------------------------*/
FoamFile
{
    format      ascii;
    class       volVectorField;
    location    "3.5";
    object      U;
}
// * * * * * * * * * * * * * * * * * * * * * * * * * * * * * * * * * * * * * //

dimensions      [0 1 -1 0 0 0 0];

internalField   nonuniform List<vector> 
36360
(
(0.00442987 -0.125401 -0.496703)
(-0.00116788 -0.0902259 0.000224131)
(0.00485819 -0.130179 -0.499517)
(-0.00259643 -0.0827505 0.000141212)
(0.00384159 -0.146025 -0.500622)
(0.00410168 -0.0681933 -1.29532e-05)
(0.00929465 -0.157445 -0.501749)
(0.00293111 -0.0687523 -5.11934e-06)
(0.00305524 -0.0956129 -0.000147483)
(0.0011061 -0.0995992 -7.38087e-06)
(0.0010439 -0.0941125 -0.000100705)
(-0.000872382 -0.0980463 -4.55862e-06)
(0.00634875 -0.0942671 2.48779e-05)
(0.00448673 -0.104527 -4.14858e-06)
(0.00686002 -0.101346 -6.40411e-07)
(0.00616965 -0.108882 -7.27682e-06)
(-0.000946333 -0.101539 2.79913e-07)
(-0.000944883 -0.10154 -2.81282e-07)
(-0.00255256 -0.099531 -1.93619e-07)
(-0.00255134 -0.0995326 1.92087e-07)
(0.00400798 -0.105836 -1.15002e-07)
(0.00400752 -0.105838 1.15336e-07)
(0.00633042 -0.108675 -1.98775e-06)
(0.0063299 -0.108677 1.98931e-06)
(0.00110694 -0.0996029 7.38623e-06)
(0.00305507 -0.0956171 0.0001475)
(-0.000870949 -0.0980501 4.55945e-06)
(0.00104403 -0.0941172 0.00010072)
(0.00448604 -0.10453 4.15529e-06)
(0.00634757 -0.0942735 -2.48552e-05)
(0.00616891 -0.108886 7.27753e-06)
(0.00685922 -0.101351 6.45786e-07)
(-0.00116688 -0.0902273 -0.000224122)
(0.00442961 -0.125392 0.496704)
(-0.00259604 -0.0827529 -0.0001412)
(0.0048578 -0.130169 0.499518)
(0.00410125 -0.0682004 1.29079e-05)
(0.00384061 -0.146006 0.500623)
(0.00293011 -0.0687587 5.10185e-06)
(0.00929334 -0.157425 0.501749)
(0.00672333 -0.121946 -0.494483)
(-0.00530839 -0.0934038 0.000148356)
(0.00599337 -0.124645 -0.495651)
(-0.00327595 -0.091417 0.00019028)
(0.00365876 -0.139268 -0.500629)
(-0.0025548 -0.0671629 -0.000164721)
(0.00322882 -0.142812 -0.500869)
(0.000805435 -0.0652687 -8.12935e-05)
(0.00229027 -0.0956751 -6.16993e-05)
(0.00220629 -0.0995485 -7.8465e-06)
(0.00304212 -0.0955526 -0.000106333)
(0.00223056 -0.0997514 -7.85107e-06)
(0.00361815 -0.0852994 0.000191465)
(0.00279257 -0.0974047 2.47963e-06)
(0.0052741 -0.0881196 0.000104497)
(0.00382199 -0.100252 -1.92752e-06)
(0.0016923 -0.101492 -1.83627e-06)
(0.00169228 -0.101493 1.84009e-06)
(0.00113343 -0.101825 1.04626e-07)
(0.00113374 -0.101826 -1.03298e-07)
(0.00234215 -0.101249 -1.6703e-06)
(0.00234187 -0.10125 1.67289e-06)
(0.00285948 -0.103418 -4.16077e-07)
(0.00285927 -0.103419 4.1771e-07)
(0.00220611 -0.0995513 7.86072e-06)
(0.00229039 -0.0956781 6.17179e-05)
(0.00223053 -0.0997544 7.86184e-06)
(0.00304198 -0.0955561 0.000106352)
(0.00279182 -0.097409 -2.46365e-06)
(0.00361775 -0.0853069 -0.000191401)
(0.00382113 -0.100255 1.93956e-06)
(0.00527306 -0.0881269 -0.000104456)
(-0.00530661 -0.0934039 -0.000148399)
(0.00672233 -0.121938 0.494485)
(-0.00327459 -0.0914175 -0.000190297)
(0.00599265 -0.124636 0.495653)
(-0.00255333 -0.0671687 0.000164579)
(0.0036573 -0.13925 0.50063)
(0.000806035 -0.0652753 8.12051e-05)
(0.00322756 -0.142794 0.500869)
(0.00734651 -0.117392 -0.492556)
(-0.00743143 -0.0956441 3.99909e-05)
(0.00708906 -0.119475 -0.493455)
(-0.00661288 -0.0946602 9.72672e-05)
(0.00433165 -0.131561 -0.500262)
(-0.00526508 -0.0730737 -0.000351452)
(0.00402135 -0.135271 -0.50043)
(-0.00433278 -0.0699307 -0.000256265)
(0.00089714 -0.0953469 3.03826e-05)
(0.00143285 -0.0984852 1.35084e-05)
(0.0015029 -0.0954855 -1.46624e-05)
(0.00184671 -0.0990479 -1.35373e-07)
(0.00186483 -0.0824228 0.000362146)
(0.00129518 -0.0933455 2.81678e-05)
(0.00252359 -0.0833424 0.000279335)
(0.00187834 -0.0950345 1.29589e-05)
(0.00127484 -0.100376 -1.44909e-06)
(0.00127486 -0.100377 1.44757e-06)
(0.00158265 -0.100981 -2.48212e-06)
(0.00158258 -0.100982 2.47982e-06)
(0.0010939 -0.0975974 -9.10423e-07)
(0.0010938 -0.0975989 9.0916e-07)
(0.00164516 -0.0991511 -1.86713e-06)
(0.00164496 -0.0991525 1.86749e-06)
(0.00143281 -0.0984875 -1.35435e-05)
(0.000897443 -0.0953492 -3.03836e-05)
(0.00184657 -0.0990504 1.44578e-07)
(0.0015032 -0.0954881 1.46813e-05)
(0.00129503 -0.0933503 -2.81462e-05)
(0.00186485 -0.0824298 -0.000362039)
(0.00187794 -0.0950391 -1.29396e-05)
(0.00252349 -0.0833498 -0.000279249)
(-0.00742924 -0.0956434 -4.00696e-05)
(0.00734477 -0.117385 0.492559)
(-0.00661087 -0.0946599 -9.7337e-05)
(0.00708764 -0.119467 0.493458)
(-0.00526288 -0.0730775 0.000351187)
(0.00432966 -0.131544 0.500263)
(-0.00433091 -0.0699355 0.000256063)
(0.00401955 -0.135254 0.500431)
(0.00774377 -0.114039 -0.490927)
(-0.00829473 -0.0972065 -8.09608e-05)
(0.00755696 -0.115596 -0.491677)
(-0.00794919 -0.0964817 -2.03442e-05)
(0.00471467 -0.125045 -0.499962)
(-0.00613262 -0.0790536 -0.000540032)
(0.00455185 -0.128157 -0.500102)
(-0.00578447 -0.0761807 -0.000446828)
(0.000208839 -0.0954984 0.000104724)
(0.000849035 -0.0976869 5.08818e-05)
(0.000477125 -0.0953574 7.0412e-05)
(0.00109842 -0.0980234 3.12035e-05)
(0.00119717 -0.0825261 0.000503125)
(0.000693756 -0.0914357 6.7888e-05)
(0.00144128 -0.0822476 0.000436998)
(0.000934491 -0.0922061 4.69265e-05)
(0.000790624 -0.0993422 4.34402e-06)
(0.000790624 -0.0993429 -4.31539e-06)
(0.000996575 -0.0998145 8.87957e-07)
(0.000996546 -0.0998153 -8.76319e-07)
(0.000595264 -0.0956787 4.45131e-06)
(0.000595242 -0.0956803 -4.42653e-06)
(0.000776644 -0.0964998 1.23787e-06)
(0.000776592 -0.0965013 -1.22721e-06)
(0.000849098 -0.0976889 -5.08236e-05)
(0.000209252 -0.0955001 -0.00010469)
(0.00109845 -0.0980255 -3.1173e-05)
(0.000477537 -0.0953594 -7.03922e-05)
(0.000693797 -0.0914403 -6.78247e-05)
(0.00119718 -0.0825323 -0.000502955)
(0.000934467 -0.0922108 -4.68837e-05)
(0.00144132 -0.0822542 -0.000436857)
(-0.00829213 -0.0972054 8.08018e-05)
(0.00774137 -0.114032 0.490931)
(-0.00794679 -0.0964808 2.02147e-05)
(0.0075548 -0.115589 0.491681)
(-0.00612991 -0.0790558 0.000539646)
(0.0047123 -0.12503 0.499963)
(-0.00578199 -0.0761836 0.000446503)
(0.00454956 -0.128141 0.500103)
(0.00805169 -0.111503 -0.489535)
(-0.00871408 -0.0983908 -0.000197632)
(0.00790369 -0.112687 -0.490168)
(-0.00853456 -0.0978408 -0.000140386)
(0.00492823 -0.119705 -0.499703)
(-0.0065371 -0.0838741 -0.000714262)
(0.00482625 -0.122235 -0.499823)
(-0.0063652 -0.0816214 -0.000629472)
(-5.26637e-05 -0.0960146 0.000155739)
(0.000539062 -0.09735 9.24317e-05)
(4.45038e-05 -0.0957245 0.000133076)
(0.000669354 -0.0974692 7.15347e-05)
(0.000983937 -0.0838293 0.000609519)
(0.000385047 -0.0906263 0.000112246)
(0.00105994 -0.0830907 0.000560458)
(0.000520527 -0.0909322 8.99407e-05)
(0.000541452 -0.0986832 1.37418e-05)
(0.000541509 -0.0986838 -1.36581e-05)
(0.000645348 -0.0989689 8.70908e-06)
(0.000645372 -0.0989696 -8.65837e-06)
(0.000416537 -0.094523 1.31957e-05)
(0.000416511 -0.0945244 -1.32503e-05)
(0.000486818 -0.0950374 8.53864e-06)
(0.000486813 -0.0950389 -8.49296e-06)
(0.000539219 -0.0973516 -9.22394e-05)
(-5.22105e-05 -0.0960154 -0.000155865)
(0.000669449 -0.0974711 -7.14511e-05)
(4.49477e-05 -0.0957259 -0.000133047)
(0.000385272 -0.0906305 -0.00011208)
(0.000984066 -0.0838342 -0.000609241)
(0.000520618 -0.0909365 -8.98728e-05)
(0.00106001 -0.0830963 -0.000560278)
(-0.00871108 -0.0983892 0.000197413)
(0.00804882 -0.111496 0.489541)
(-0.00853179 -0.0978395 0.000140196)
(0.00790096 -0.112681 0.490174)
(-0.00653412 -0.083875 0.000713706)
(0.00492546 -0.119691 0.499704)
(-0.00636235 -0.0816229 0.000629034)
(0.0048235 -0.122221 0.499824)
(0.00830766 -0.109532 -0.488347)
(-0.00896647 -0.0992502 -0.000302049)
(0.00818272 -0.11046 -0.488877)
(-0.00885209 -0.0988577 -0.000251144)
(0.00507041 -0.115387 -0.499479)
(-0.00675583 -0.0874855 -0.000867575)
(0.00499714 -0.117432 -0.499581)
(-0.00665179 -0.0858188 -0.000793537)
(-0.000137877 -0.0966665 0.000187154)
(0.000379665 -0.0973183 0.000130943)
(-0.000109929 -0.0963394 0.000173541)
(0.000445079 -0.0973069 0.000111834)
(0.00101074 -0.0855476 0.00068565)
(0.000190296 -0.0904151 0.000155128)
(0.000974559 -0.0846683 0.000650887)
(0.000276395 -0.0904652 0.000133879)
(0.000403854 -0.0983139 2.48381e-05)
(0.000404157 -0.0983145 -2.48884e-05)
(0.000464285 -0.0984699 1.9048e-05)
(0.000464406 -0.0984705 -1.9292e-05)
(0.000325304 -0.0937592 2.34735e-05)
(0.000325573 -0.0937608 -2.40898e-05)
(0.000366536 -0.0941037 1.8283e-05)
(0.000366546 -0.0941048 -1.84682e-05)
(0.000379846 -0.0973197 -0.000130754)
(-0.000137471 -0.0966674 -0.000187057)
(0.000445396 -0.0973083 -0.000112517)
(-0.000108915 -0.0963403 -0.000173616)
(0.000190477 -0.0904186 -0.000153675)
(0.00101013 -0.085551 -0.000685146)
(0.000276545 -0.0904691 -0.000133778)
(0.000974069 -0.0846729 -0.000650598)
(-0.00896316 -0.0992487 0.000301709)
(0.00830433 -0.109527 0.488354)
(-0.00884876 -0.0988563 0.000251668)
(0.00817959 -0.110454 0.488883)
(-0.00675268 -0.0874856 0.000866272)
(0.00506735 -0.115374 0.49948)
(-0.0066488 -0.0858195 0.000793002)
(0.00499404 -0.117419 0.499582)
(0.00852541 -0.107956 -0.487333)
(-0.00913578 -0.0998425 -0.00039263)
(0.00841827 -0.108704 -0.487773)
(-0.00905733 -0.0995754 -0.000348975)
(0.00517724 -0.111879 -0.499284)
(-0.00690793 -0.0901031 -0.000997583)
(0.00511779 -0.113545 -0.499371)
(-0.00682886 -0.0889023 -0.000934514)
(-0.000110008 -0.0972853 0.000204032)
(0.000314906 -0.0974438 0.000164119)
(-0.000136161 -0.0969833 0.000196973)
(0.000338228 -0.097368 0.000148092)
(0.00112033 -0.0872646 0.000737798)
(7.03989e-05 -0.0905378 0.000191459)
(0.00106486 -0.0864202 0.000714245)
(0.000123071 -0.090446 0.000172242)
(0.000318078 -0.0981297 3.61019e-05)
(0.000318319 -0.0981302 -3.60614e-05)
(0.000356571 -0.0982038 3.05307e-05)
(0.00035626 -0.0982043 -3.05719e-05)
(0.000255755 -0.0932462 3.44732e-05)
(0.000255995 -0.0932471 -3.46432e-05)
(0.000289327 -0.0934762 2.93733e-05)
(0.000289009 -0.0934775 -2.90697e-05)
(0.000314957 -0.0974448 -0.000163955)
(-0.000109531 -0.0972858 -0.000204016)
(0.00033866 -0.0973691 -0.000148261)
(-0.000134898 -0.0969838 -0.000197104)
(7.05412e-05 -0.0905412 -0.000190509)
(0.00111973 -0.0872683 -0.000737677)
(0.000123545 -0.0904495 -0.000174773)
(0.00106493 -0.0864236 -0.000713946)
(-0.0091321 -0.0998411 0.000392241)
(0.00852172 -0.107951 0.487341)
(-0.00905354 -0.0995739 0.000348785)
(0.00841478 -0.108699 0.487782)
(-0.00690446 -0.0901032 0.000996446)
(0.00517399 -0.111868 0.499286)
(-0.00682534 -0.0889023 0.000935018)
(0.00511454 -0.113533 0.499374)
(0.00870928 -0.106653 -0.486469)
(-0.00925611 -0.10023 -0.000469581)
(0.00861869 -0.107277 -0.486837)
(-0.00919977 -0.100058 -0.000432728)
(0.00526191 -0.10899 -0.499118)
(-0.00702964 -0.0919707 -0.00110579)
(0.00521243 -0.110368 -0.499192)
(-0.00696391 -0.0911165 -0.00105415)
(-8.50193e-06 -0.097825 0.000211249)
(0.000308004 -0.0976343 0.000191084)
(-6.30118e-05 -0.0975665 0.000208616)
(0.000306127 -0.0975351 0.000178372)
(0.0012326 -0.0888035 0.000772636)
(1.0035e-06 -0.0908305 0.000220761)
(0.00117736 -0.088062 0.000757107)
(3.03902e-05 -0.0906704 0.000206759)
(0.000264129 -0.098056 4.62708e-05)
(0.000264206 -0.0980563 -4.61823e-05)
(0.000287783 -0.0980829 4.13698e-05)
(0.000287853 -0.0980834 -4.12933e-05)
(0.000199787 -0.092912 4.44875e-05)
(0.00019987 -0.0929131 -4.44002e-05)
(0.000226233 -0.0930597 3.97053e-05)
(0.000226312 -0.093061 -3.9615e-05)
(0.000308083 -0.0976351 -0.000190942)
(-8.01841e-06 -0.0978252 -0.000211221)
(0.000306244 -0.097536 -0.000178246)
(-6.24282e-05 -0.0975667 -0.00020859)
(1.24992e-06 -0.090833 -0.000220591)
(0.00123222 -0.0888059 -0.000772344)
(3.06287e-05 -0.0906731 -0.000206652)
(0.00117688 -0.0880646 -0.000756813)
(-0.00925211 -0.100228 0.000469206)
(0.00870527 -0.106649 0.486478)
(-0.00919591 -0.100057 0.000432372)
(0.0086147 -0.107272 0.486846)
(-0.00702587 -0.0919701 0.00110497)
(0.00525846 -0.10898 0.49912)
(-0.00696031 -0.0911161 0.00105338)
(0.00520885 -0.110357 0.499193)
(0.00886293 -0.105541 -0.48573)
(-0.00933722 -0.100452 -0.00053355)
(0.00878674 -0.106078 -0.486033)
(-0.00929903 -0.10036 -0.00050307)
(0.00532701 -0.106572 -0.498975)
(-0.00711731 -0.0932783 -0.0011946)
(0.00528612 -0.10773 -0.499037)
(-0.0070681 -0.0926846 -0.00115246)
(9.73826e-05 -0.0982604 0.000212216)
(0.000333257 -0.0978295 0.000211479)
(4.6688e-05 -0.0980566 0.000212338)
(0.000317973 -0.0977341 0.000202053)
(0.00136375 -0.090094 0.000794619)
(-2.92744e-05 -0.0911837 0.000243577)
(0.00129654 -0.0894811 0.000784949)
(-1.80599e-05 -0.091004 0.000232987)
(0.000235237 -0.0980369 5.47736e-05)
(0.000235304 -0.0980371 -5.4676e-05)
(0.000246825 -0.0980423 5.07404e-05)
(0.000246898 -0.0980426 -5.06454e-05)
(0.000154722 -0.0927037 5.29054e-05)
(0.000154809 -0.0927046 -5.28047e-05)
(0.000176195 -0.0927947 4.88978e-05)
(0.000176278 -0.0927957 -4.8803e-05)
(0.00033327 -0.09783 -0.000211345)
(9.76638e-05 -0.0982603 -0.000212189)
(0.000318023 -0.0977347 -0.000201905)
(4.70803e-05 -0.0980566 -0.00021231)
(-2.90209e-05 -0.0911856 -0.000243397)
(0.00136361 -0.0900958 -0.000794307)
(-1.78087e-05 -0.0910062 -0.000232811)
(0.00129624 -0.0894832 -0.000784646)
(-0.00933297 -0.100451 0.000533166)
(0.00885864 -0.105537 0.485739)
(-0.00929492 -0.100358 0.000502681)
(0.00878244 -0.106074 0.486042)
(-0.00711331 -0.0932775 0.00119371)
(0.0053234 -0.106563 0.498977)
(-0.00706425 -0.0926839 0.0011516)
(0.00528234 -0.107721 0.499039)
(0.0089909 -0.104555 -0.485099)
(-0.00938713 -0.100531 -0.000585805)
(0.0089269 -0.105035 -0.48535)
(-0.00936419 -0.100508 -0.000560939)
(0.005376 -0.104508 -0.498854)
(-0.00717374 -0.0941607 -0.00126642)
(0.00534247 -0.105502 -0.498905)
(-0.00713923 -0.0937655 -0.00123243)
(0.000185696 -0.0985662 0.000209416)
(0.000376306 -0.097988 0.000225759)
(0.000142348 -0.0984311 0.000211171)
(0.000352853 -0.0979153 0.000219231)
(0.00150798 -0.0911175 0.000807483)
(-3.23374e-05 -0.0915299 0.000260262)
(0.00144006 -0.0906383 0.000801983)
(-3.32153e-05 -0.0913601 0.000252616)
(0.000228934 -0.0980323 6.14825e-05)
(0.000228986 -0.0980324 -6.13653e-05)
(0.000229339 -0.0980348 5.83492e-05)
(0.000229399 -0.098035 -5.82402e-05)
(0.000119797 -0.0925746 5.96692e-05)
(0.000119879 -0.0925752 -5.95516e-05)
(0.00013531 -0.0926313 5.64961e-05)
(0.000135398 -0.0926321 -5.63867e-05)
(0.000376282 -0.0979882 -0.000225584)
(0.000185984 -0.0985658 -0.000209396)
(0.000352842 -0.0979156 -0.000219066)
(0.000142602 -0.0984308 -0.000211148)
(-3.20984e-05 -0.0915313 -0.00026006)
(0.00150769 -0.0911186 -0.000807158)
(-3.29684e-05 -0.0913618 -0.000252424)
(0.00143985 -0.0906397 -0.000801664)
(-0.00938264 -0.100529 0.000585361)
(0.00898639 -0.104551 0.485109)
(-0.00935985 -0.100507 0.000560514)
(0.00892233 -0.105031 0.485361)
(-0.00716953 -0.0941596 0.00126546)
(0.00537224 -0.1045 0.498856)
(-0.00713516 -0.0937645 0.00123151)
(0.0053385 -0.105493 0.498907)
(0.00909803 -0.10365 -0.484555)
(-0.00940689 -0.100484 -0.000628523)
(0.00904366 -0.104095 -0.484759)
(-0.00939828 -0.100522 -0.000608181)
(0.00541084 -0.102709 -0.49875)
(-0.00720309 -0.0947123 -0.00132386)
(0.00538328 -0.10358 -0.498792)
(-0.00718052 -0.0944727 -0.00129674)
(0.000277293 -0.0987408 0.000204507)
(0.000434384 -0.0980843 0.000235535)
(0.000231667 -0.098669 0.00020715)
(0.000403889 -0.098045 0.000231126)
(0.00163027 -0.091888 0.000813905)
(-1.7858e-05 -0.0918258 0.00027188)
(0.00157303 -0.0915324 0.000811341)
(-2.66107e-05 -0.0916856 0.000266628)
(0.000243602 -0.0980094 6.65486e-05)
(0.000243643 -0.0980094 -6.64194e-05)
(0.000233838 -0.0980247 6.41961e-05)
(0.000233885 -0.0980248 -6.40725e-05)
(9.9954e-05 -0.0924859 6.4814e-05)
(0.000100027 -0.0924864 -6.4684e-05)
(0.000108328 -0.0925269 6.24314e-05)
(0.000108404 -0.0925275 -6.23071e-05)
(0.000434341 -0.0980843 -0.000235352)
(0.000277641 -0.0987402 -0.000204492)
(0.000403853 -0.098045 -0.000230946)
(0.000231982 -0.0986686 -0.000207133)
(-1.76428e-05 -0.0918267 -0.000271666)
(0.00162986 -0.0918885 -0.000813572)
(-2.63844e-05 -0.0916869 -0.000266419)
(0.00157266 -0.0915331 -0.000811012)
(-0.00940217 -0.100482 0.000628052)
(0.00909334 -0.103647 0.484567)
(-0.0093937 -0.10052 0.000607723)
(0.00903888 -0.104091 0.48477)
(-0.00719871 -0.094711 0.00132284)
(0.00540696 -0.102702 0.498752)
(-0.00717627 -0.0944715 0.00129575)
(0.00537917 -0.103572 0.498794)
(0.00918944 -0.102791 -0.484083)
(-0.00939914 -0.100321 -0.000663372)
(0.00914227 -0.103217 -0.484254)
(-0.00940428 -0.100416 -0.000646839)
(0.00543418 -0.101106 -0.498661)
(-0.00720897 -0.095 -0.0013693)
(0.00541178 -0.101887 -0.498696)
(-0.00719795 -0.0948855 -0.00134791)
(0.000372895 -0.09879 0.000198565)
(0.000504193 -0.0981013 0.000241771)
(0.000325389 -0.0987808 0.000201623)
(0.000468153 -0.0981034 0.000239017)
(0.0017351 -0.0924276 0.000815829)
(7.77589e-06 -0.0920421 0.000279493)
(0.0016863 -0.0921848 0.000815312)
(-5.89515e-06 -0.0919446 0.00027612)
(0.000276864 -0.0979435 7.01351e-05)
(0.000276893 -0.0979435 -6.99972e-05)
(0.000258078 -0.097983 6.84997e-05)
(0.000258112 -0.097983 -6.83659e-05)
(9.13642e-05 -0.0924029 6.85423e-05)
(9.14324e-05 -0.0924032 -6.84031e-05)
(9.44398e-05 -0.0924452 6.68385e-05)
(9.45101e-05 -0.0924456 -6.67036e-05)
(0.000504136 -0.0981011 -0.000241581)
(0.000373299 -0.0987893 -0.000198556)
(0.000468101 -0.0981033 -0.000238831)
(0.000325761 -0.0987802 -0.000201611)
(7.96494e-06 -0.0920427 -0.00027927)
(0.00173462 -0.0924276 -0.000815488)
(-5.69416e-06 -0.0919454 -0.000275901)
(0.00168584 -0.0921851 -0.000814974)
(-0.00939422 -0.10032 0.000662883)
(0.0091846 -0.102788 0.484095)
(-0.00939948 -0.100415 0.00064636)
(0.00913733 -0.103214 0.484266)
(-0.00720445 -0.0949985 0.00136824)
(0.00543021 -0.1011 0.498663)
(-0.00719354 -0.0948841 0.00134687)
(0.00540754 -0.10188 0.498698)
(0.0092702 -0.101948 -0.483667)
(-0.00936491 -0.10005 -0.000691461)
(0.0092276 -0.102369 -0.483805)
(-0.00938276 -0.100199 -0.000678126)
(0.00544855 -0.0996436 -0.498584)
(-0.00718958 -0.0950664 -0.0014035)
(0.00542955 -0.100361 -0.498612)
(-0.00719114 -0.0950591 -0.00138813)
(0.000473423 -0.0987153 0.000192246)
(0.000583854 -0.0980263 0.000245306)
(0.000423209 -0.098768 0.000195433)
(0.000543084 -0.0980758 0.000243804)
(0.00182544 -0.0927548 0.000814642)
(4.05578e-05 -0.0921599 0.00028401)
(0.00178344 -0.0926164 0.000815535)
(2.36182e-05 -0.0921137 0.000282081)
(0.000326884 -0.0978148 7.2542e-05)
(0.000326902 -0.0978147 -7.23974e-05)
(0.000299923 -0.097888 7.14596e-05)
(0.000299946 -0.0978879 -7.13181e-05)
(9.23766e-05 -0.0922952 7.11019e-05)
(9.24423e-05 -0.0922954 -7.09556e-05)
(9.07365e-05 -0.0923533 6.99506e-05)
(9.08028e-05 -0.0923535 -6.98076e-05)
(0.000583786 -0.098026 -0.000245112)
(0.000473889 -0.0987144 -0.000192241)
(0.00054302 -0.0980755 -0.000243612)
(0.00042364 -0.0987672 -0.000195426)
(4.07248e-05 -0.0921601 -0.000283781)
(0.0018249 -0.0927543 -0.000814296)
(2.37932e-05 -0.092114 -0.000281855)
(0.00178292 -0.0926161 -0.000815191)
(-0.00935983 -0.100048 0.000690956)
(0.00926526 -0.101945 0.48368)
(-0.00937777 -0.100198 0.000677629)
(0.00922253 -0.102366 0.483817)
(-0.00718497 -0.0950647 0.00140241)
(0.0054445 -0.0996377 0.498586)
(-0.0071866 -0.0950575 0.00138705)
(0.00542521 -0.100355 0.498615)
(0.00934692 -0.101094 -0.4833)
(-0.00930878 -0.0996673 -0.000713881)
(0.00930528 -0.101524 -0.483411)
(-0.00933695 -0.0998725 -0.000703259)
(0.00545991 -0.0982726 -0.498517)
(-0.0071569 -0.0949513 -0.00143176)
(0.00544054 -0.0989493 -0.49854)
(-0.0071648 -0.0950344 -0.00141776)
(0.00057346 -0.0985151 0.000185969)
(0.000670093 -0.097849 0.0002468)
(0.000526115 -0.098631 0.000189074)
(0.000626683 -0.0979509 0.000246248)
(0.00190608 -0.0928863 0.000811306)
(7.91156e-05 -0.0921666 0.000286099)
(0.00186805 -0.0928435 0.000813171)
(5.96348e-05 -0.0921767 0.000285303)
(0.000392295 -0.0976059 7.40225e-05)
(0.000392306 -0.0976058 -7.38723e-05)
(0.000357732 -0.0977212 7.33785e-05)
(0.000357747 -0.0977211 -7.3231e-05)
(0.000103025 -0.0921373 7.2729e-05)
(0.000103093 -0.0921374 -7.25771e-05)
(9.64362e-05 -0.0922234 7.20181e-05)
(9.65019e-05 -0.0922235 -7.18687e-05)
(0.000669998 -0.0978485 -0.000246603)
(0.000573802 -0.0985141 -0.000185968)
(0.000626609 -0.0979505 -0.000246053)
(0.000526578 -0.09863 -0.000189071)
(7.92749e-05 -0.0921665 -0.000285864)
(0.00190551 -0.0928854 -0.000810956)
(5.97962e-05 -0.0921767 -0.00028507)
(0.00186749 -0.0928428 -0.000812823)
(-0.00930361 -0.0996657 0.000713362)
(0.00934191 -0.101092 0.483313)
(-0.00933183 -0.099871 0.000702748)
(0.00930011 -0.101521 0.483424)
(-0.00715218 -0.0949492 0.00143064)
(0.00545582 -0.0982673 0.498519)
(-0.00716017 -0.0950325 0.00141665)
(0.00543614 -0.0989437 0.498542)
(0.00942264 -0.100208 -0.48296)
(-0.00923143 -0.0991721 -0.000731561)
(0.00938114 -0.100656 -0.483056)
(-0.00927075 -0.0994344 -0.000723189)
(0.00546744 -0.0969572 -0.498456)
(-0.00710187 -0.0946583 -0.00145235)
(0.00545104 -0.0976099 -0.498477)
(-0.00712018 -0.0948255 -0.00144289)
(0.000668182 -0.0981879 0.000180021)
(0.000764185 -0.097559 0.000246796)
(0.000620469 -0.0983675 0.00018295)
(0.000715936 -0.0977186 0.000246923)
(0.00198218 -0.0928428 0.000806535)
(0.00012471 -0.0920537 0.000286702)
(0.00194622 -0.0928854 0.000809013)
(0.000101351 -0.0921255 0.000286565)
(0.000473652 -0.0973011 7.47806e-05)
(0.000473657 -0.0973009 -7.46265e-05)
(0.000430963 -0.0974663 7.4468e-05)
(0.000430971 -0.0974661 -7.43157e-05)
(0.000124306 -0.0919061 7.36356e-05)
(0.000124374 -0.091906 -7.348e-05)
(0.000112275 -0.0920316 7.32592e-05)
(0.000112343 -0.0920316 -7.31053e-05)
(0.000764079 -0.0975584 -0.000246597)
(0.000668521 -0.0981867 -0.000180023)
(0.000715834 -0.097718 -0.000246725)
(0.000620788 -0.0983664 -0.00018295)
(0.000124866 -0.0920532 -0.000286467)
(0.0019816 -0.0928415 -0.000806184)
(0.000101517 -0.0921251 -0.000286331)
(0.00194564 -0.0928843 -0.000808663)
(-0.00922618 -0.0991704 0.000731031)
(0.00941758 -0.100205 0.482973)
(-0.00926556 -0.0994328 0.000722665)
(0.0093759 -0.100653 0.483069)
(-0.00709708 -0.094656 0.00145121)
(0.00546331 -0.0969524 0.498459)
(-0.00711545 -0.0948233 0.00144176)
(0.00544659 -0.0976049 0.498479)
(0.00950451 -0.0992645 -0.482648)
(-0.00913274 -0.0985568 -0.000745188)
(0.00945976 -0.0997451 -0.482729)
(-0.00918252 -0.0988794 -0.000738762)
(0.00547772 -0.0956568 -0.498403)
(-0.00703427 -0.0942052 -0.0014671)
(0.00545988 -0.0963073 -0.498419)
(-0.00705769 -0.0944506 -0.00146033)
(0.000773949 -0.0977286 0.000174486)
(0.00086995 -0.097146 0.000245746)
(0.000720247 -0.0979751 0.000177198)
(0.000815662 -0.0973685 0.000246357)
(0.00205472 -0.0926292 0.000801016)
(0.000174131 -0.0918113 0.000285952)
(0.0020205 -0.0927565 0.000803852)
(0.000149192 -0.0919488 0.000286455)
(0.000571472 -0.0968849 7.50142e-05)
(0.00057147 -0.0968846 -7.4858e-05)
(0.000520483 -0.0971077 7.49434e-05)
(0.000520484 -0.0971075 -7.4788e-05)
(0.000156662 -0.0915806 7.39816e-05)
(0.000156729 -0.0915804 -7.38238e-05)
(0.00013913 -0.0917557 7.38679e-05)
(0.000139198 -0.0917555 -7.37109e-05)
(0.000869834 -0.0971452 -0.000245546)
(0.000774314 -0.0977273 -0.00017449)
(0.000815551 -0.0973678 -0.000246157)
(0.000720603 -0.0979739 -0.0001772)
(0.000174269 -0.0918105 -0.000285715)
(0.00205412 -0.0926275 -0.000800666)
(0.000149338 -0.0919482 -0.000286219)
(0.00201991 -0.0927551 -0.000803502)
(-0.00912744 -0.0985551 0.000744651)
(0.0094994 -0.0992622 0.482662)
(-0.00917726 -0.0988777 0.000738227)
(0.0094545 -0.0997427 0.482743)
(-0.00702946 -0.0942027 0.00146594)
(0.00547357 -0.0956524 0.498405)
(-0.00705294 -0.0944482 0.00145918)
(0.00545542 -0.0963028 0.498422)
(0.00959547 -0.0982432 -0.482355)
(-0.0090119 -0.0978129 -0.000755444)
(0.00954518 -0.0987651 -0.482425)
(-0.0090726 -0.0982014 -0.000750628)
(0.00549018 -0.0943386 -0.498354)
(-0.00695226 -0.0935965 -0.00147716)
(0.00546948 -0.0950019 -0.498368)
(-0.00698176 -0.0939199 -0.00147263)
(0.000892437 -0.0971281 0.000169506)
(0.000989302 -0.0965976 0.000243946)
(0.000832361 -0.0974464 0.000171933)
(0.000927959 -0.0968893 0.000244896)
(0.00212439 -0.0922466 0.000794992)
(0.000227966 -0.0914292 0.000284281)
(0.00209149 -0.0924585 0.000798023)
(0.000200599 -0.0916378 0.000285206)
(0.000686528 -0.096341 7.48553e-05)
(0.00068652 -0.0963407 -7.46986e-05)
(0.000626801 -0.0966297 7.49698e-05)
(0.000626796 -0.0966294 -7.48133e-05)
(0.000198184 -0.0911427 7.39038e-05)
(0.000198245 -0.0911424 -7.37454e-05)
(0.000176532 -0.0913763 7.39862e-05)
(0.000176595 -0.091376 -7.38279e-05)
(0.000989178 -0.0965967 -0.000243747)
(0.00089281 -0.0971267 -0.000169512)
(0.000927838 -0.0968885 -0.000244697)
(0.000832727 -0.097445 -0.000171938)
(0.000228085 -0.0914281 -0.000284045)
(0.00212374 -0.0922447 -0.000794642)
(0.000200725 -0.0916369 -0.00028497)
(0.00209085 -0.0924567 -0.000797673)
(-0.00900658 -0.0978112 0.000754902)
(0.00959035 -0.0982411 0.482369)
(-0.00906731 -0.0981997 0.000750088)
(0.00953989 -0.0987628 0.482439)
(-0.00694745 -0.0935937 0.00147599)
(0.00548603 -0.0943347 0.498356)
(-0.006977 -0.0939172 0.00147146)
(0.005465 -0.0949978 0.49837)
(0.00969971 -0.0971212 -0.482075)
(-0.00886909 -0.0969301 -0.000762787)
(0.00964244 -0.097696 -0.482137)
(-0.00894088 -0.0973896 -0.000759368)
(0.00550759 -0.0929694 -0.498308)
(-0.00685815 -0.0928324 -0.00148327)
(0.00548411 -0.093662 -0.49832)
(-0.0068936 -0.0932338 -0.00148062)
(0.00102497 -0.0963776 0.000165074)
(0.00112424 -0.0959013 0.000241604)
(0.000957605 -0.0967722 0.000167228)
(0.00105486 -0.0962686 0.000242803)
(0.00219312 -0.0916943 0.000788747)
(0.000286909 -0.0908963 0.000281949)
(0.00216032 -0.0919914 0.000791864)
(0.000256887 -0.0911818 0.000283179)
(0.000819938 -0.0956545 7.43844e-05)
(0.000819925 -0.0956541 -7.42282e-05)
(0.000750853 -0.0960164 7.46432e-05)
(0.000750842 -0.0960161 -7.44867e-05)
(0.000246848 -0.0905728 7.35108e-05)
(0.000246904 -0.0905724 -7.33529e-05)
(0.000221517 -0.0908748 7.37402e-05)
(0.000221575 -0.0908745 -7.35819e-05)
(0.00112411 -0.0959003 -0.000241407)
(0.00102534 -0.0963761 -0.000165082)
(0.00105473 -0.0962676 -0.000242604)
(0.000957977 -0.0967707 -0.000167234)
(0.000287012 -0.090895 -0.000281714)
(0.00219244 -0.091692 -0.000788399)
(0.000256997 -0.0911806 -0.000282943)
(0.00215965 -0.0919893 -0.000791515)
(-0.00886377 -0.0969283 0.000762242)
(0.0096946 -0.0971192 0.482089)
(-0.00893558 -0.0973878 0.000758825)
(0.00963715 -0.0976939 0.482151)
(-0.00685337 -0.0928295 0.0014821)
(0.00550345 -0.0929659 0.49831)
(-0.00688885 -0.0932309 0.00147946)
(0.00547963 -0.0936583 0.498323)
(0.00982044 -0.0958766 -0.481801)
(-0.00870374 -0.095896 -0.00076761)
(0.00975445 -0.0965154 -0.481854)
(-0.00878683 -0.0964327 -0.000765397)
(0.00553146 -0.0915193 -0.498265)
(-0.00675192 -0.0919087 -0.00148603)
(0.00550409 -0.092256 -0.498275)
(-0.00679299 -0.0923906 -0.00148499)
(0.00117347 -0.0954656 0.000161186)
(0.00127667 -0.0950435 0.00023887)
(0.00109789 -0.0959425 0.000163068)
(0.0011983 -0.0954933 0.000240248)
(0.00226339 -0.0909679 0.000782443)
(0.000351825 -0.0902003 0.000279131)
(0.00222958 -0.0913528 0.000785573)
(0.00031869 -0.090569 0.000280586)
(0.000973195 -0.0948093 7.36775e-05)
(0.000973177 -0.0948089 -7.35225e-05)
(0.000893984 -0.0952526 7.40461e-05)
(0.000893969 -0.0952522 -7.38904e-05)
(0.000303676 -0.0898522 7.28731e-05)
(0.000303728 -0.0898517 -7.27166e-05)
(0.000274128 -0.090232 7.32175e-05)
(0.000274182 -0.0902315 -7.30602e-05)
(0.00127653 -0.0950424 -0.000238675)
(0.00117385 -0.095464 -0.000161194)
(0.00119816 -0.0954923 -0.000240051)
(0.00109826 -0.0959409 -0.000163076)
(0.000351914 -0.0901988 -0.000278898)
(0.00226269 -0.0909654 -0.000782098)
(0.000318786 -0.0905676 -0.000280352)
(0.00222889 -0.0913504 -0.000785227)
(-0.00869846 -0.0958941 0.000767063)
(0.00981534 -0.0958748 0.481815)
(-0.00878155 -0.0964309 0.000764852)
(0.00974916 -0.0965135 0.481869)
(-0.00674718 -0.0919056 0.00148486)
(0.00552733 -0.0915162 0.498267)
(-0.00678827 -0.0923876 0.00148382)
(0.00549962 -0.0922527 0.498278)
(0.00996089 -0.0944874 -0.481534)
(-0.00851489 -0.0946962 -0.00077024)
(0.00988482 -0.0952013 -0.481583)
(-0.00860997 -0.0953176 -0.000769086)
(0.00556392 -0.089958 -0.498224)
(-0.0066339 -0.0908185 -0.00148593)
(0.00553224 -0.0907541 -0.498233)
(-0.00668102 -0.0913847 -0.00148628)
(0.00133977 -0.0943787 0.000157813)
(0.00144848 -0.0940089 0.000235843)
(0.00125503 -0.0949448 0.000159442)
(0.00136017 -0.0945491 0.000237358)
(0.00233666 -0.0900604 0.00077617)
(0.000423514 -0.0893275 0.00027594)
(0.00230115 -0.0905369 0.000779278)
(0.000386866 -0.0897864 0.00027757)
(0.00114795 -0.0937884 7.2784e-05)
(0.00114792 -0.093788 -7.26311e-05)
(0.00105777 -0.0943217 7.32412e-05)
(0.00105775 -0.0943213 -7.30872e-05)
(0.000369489 -0.0889618 7.20384e-05)
(0.000369538 -0.0889613 -7.18842e-05)
(0.000335334 -0.0894288 7.24766e-05)
(0.000335384 -0.0894283 -7.23212e-05)
(0.00144832 -0.0940077 -0.00023565)
(0.00134013 -0.094377 -0.000157822)
(0.00136002 -0.0945479 -0.000237164)
(0.0012554 -0.0949431 -0.000159451)
(0.000423591 -0.0893258 -0.000275711)
(0.00233595 -0.0900576 -0.00077583)
(0.000386948 -0.0897848 -0.000277339)
(0.00230044 -0.0905343 -0.000778935)
(-0.00850966 -0.0946943 0.000769694)
(0.00995581 -0.0944856 0.481548)
(-0.00860473 -0.0953157 0.00076854)
(0.00987955 -0.0951995 0.481598)
(-0.00662921 -0.0908152 0.00148476)
(0.00555981 -0.0899553 0.498227)
(-0.00667635 -0.0913815 0.00148511)
(0.00552779 -0.0907512 0.498236)
(0.0101232 -0.0929312 -0.48127)
(-0.00830111 -0.0933155 -0.000770932)
(0.010036 -0.0937313 -0.481315)
(-0.00840884 -0.0940293 -0.000770713)
(0.00560574 -0.0882565 -0.498185)
(-0.00650332 -0.089552 -0.00148331)
(0.00556906 -0.0891262 -0.498193)
(-0.00655662 -0.0902077 -0.00148487)
(0.00152561 -0.0931027 0.000154911)
(0.00164145 -0.0927818 0.000232582)
(0.00143087 -0.0937651 0.00015631)
(0.00154234 -0.0934202 0.000234207)
(0.00241409 -0.0889626 0.000769964)
(0.000502745 -0.0882632 0.000272446)
(0.00237635 -0.0895355 0.000773036)