/*--------------------------------*- C++ -*----------------------------------*\
  =========                 |
  \\      /  F ield         | OpenFOAM: The Open Source CFD Toolbox
   \\    /   O peration     | Website:  https://openfoam.org
    \\  /    A nd           | Version:  9
     \\/     M anipulation  |
\*---------------------------------------------------------------------------*/
FoamFile
{
    format      ascii;
    class       volScalarField;
    location    "3.1";
    object      epsilon;
}
// * * * * * * * * * * * * * * * * * * * * * * * * * * * * * * * * * * * * * //

dimensions      [0 2 -3 0 0 0 0];

internalField   nonuniform List<scalar> 
36360
(
0.327063
0.258537
0.148062
0.128833
0.130005
0.0958765
0.0213847
0.0213338
0.0855747
0.0213963
0.0252809
0.00682243
0.0239327
0.00648015
0.00756017
0.00484121
0.00574958
0.00575309
0.00415088
0.00415126
0.00328594
0.00328704
0.00490927
0.00490915
0.0214069
0.0855843
0.00682587
0.0252951
0.00648546
0.0239493
0.00484185
0.0075634
0.258553
0.327095
0.128856
0.148092
0.0959039
0.13003
0.0213461
0.0213895
0.554665
0.439399
0.457181
0.359965
0.387793
0.275229
0.267885
0.186907
0.197899
0.0890132
0.144654
0.0531419
0.125326
0.0501615
0.0703319
0.0181305
0.0468782
0.0468827
0.018966
0.0189727
0.0215658
0.0215772
0.00594515
0.00594978
0.0890179
0.197894
0.0531521
0.144658
0.0501903
0.125353
0.018148
0.0703621
0.43939
0.554674
0.35997
0.457204
0.275238
0.38778
0.186933
0.267898
0.698536
0.562418
0.632779
0.505451
0.581333
0.431076
0.490373
0.356199
0.290181
0.161642
0.246148
0.125808
0.237926
0.138276
0.181953
0.0924473
0.110619
0.110616
0.0785641
0.0785648
0.0989253
0.0989322
0.0572923
0.0573031
0.161628
0.290147
0.125804
0.24613
0.138287
0.237918
0.0924699
0.181966
0.56237
0.698508
0.505425
0.632771
0.431023
0.581234
0.356182
0.490322
0.805487
0.65715
0.755441
0.612553
0.738775
0.564954
0.663602
0.5005
0.366983
0.226922
0.330393
0.195513
0.343136
0.228109
0.291884
0.184005
0.170371
0.170359
0.14148
0.141473
0.182253
0.18225
0.141237
0.141239
0.226882
0.366909
0.195486
0.330339
0.228089
0.343072
0.184001
0.29185
0.657053
0.805413
0.612482
0.755391
0.564809
0.738554
0.500404
0.663444
0.8888
0.732064
0.849744
0.696844
0.868949
0.678267
0.807081
0.62417
0.429781
0.28172
0.400087
0.255692
0.435151
0.308219
0.390973
0.269636
0.221212
0.221192
0.197007
0.196991
0.256997
0.256982
0.220959
0.22095
0.281654
0.429665
0.255639
0.399992
0.308162
0.435018
0.269598
0.390876
0.731915
0.888677
0.696722
0.849644
0.678015
0.868587
0.623973
0.80679
0.952827
0.790264
0.923056
0.763116
0.973517
0.770495
0.924261
0.726938
0.47952
0.325738
0.456232
0.305072
0.51138
0.375232
0.475259
0.343413
0.262352
0.262323
0.243009
0.242984
0.319762
0.319735
0.28993
0.289909
0.325646
0.479363
0.304993
0.456095
0.375136
0.511177
0.343337
0.475091
0.790065
0.952659
0.762941
0.922908
0.770133
0.973012
0.726631
0.923826
1.00047
0.833978
0.978524
0.813804
1.05422
0.842245
1.01663
0.80876
0.517406
0.359588
0.499882
0.343901
0.571365
0.428311
0.543312
0.403451
0.294152
0.294115
0.279398
0.279365
0.369638
0.369598
0.346258
0.346224
0.359473
0.517211
0.343797
0.499705
0.428177
0.571094
0.403336
0.543075
0.833733
1.00026
0.813581
0.978333
0.84178
1.05358
0.808345
1.01606
1.03454
0.865475
1.01906
0.851143
1.11364
0.895387
1.08631
0.870903
0.545004
0.384431
0.532422
0.373088
0.616168
0.468151
0.595497
0.449748
0.317584
0.31754
0.306875
0.306835
0.407172
0.407122
0.38982
0.389775
0.384296
0.544777
0.372962
0.53221
0.467983
0.615837
0.449597
0.595195
0.86519
1.03429
0.850877
1.01883
0.89483
1.11289
0.87039
1.08561
1.05758
0.886939
1.04731
0.877353
1.15508
0.932623
1.13629
0.915712
0.564051
0.401702
0.555527
0.393961
0.647773
0.496366
0.633408
0.483528
0.333936
0.333887
0.326601
0.326554
0.433814
0.433755
0.421682
0.421627
0.401551
0.563797
0.393818
0.555286
0.496171
0.647393
0.483346
0.633052
0.886624
1.0573
0.877052
1.04705
0.931992
1.15423
0.915116
1.13548
1.07203
0.900552
1.06578
0.894643
1.18212
0.957039
1.17009
0.946152
0.576337
0.412947
0.570984
0.408036
0.668635
0.515063
0.659325
0.506707
0.344629
0.344575
0.339953
0.339901
0.451506
0.45144
0.443591
0.443528
0.412783
0.576063
0.407878
0.57072
0.514847
0.668217
0.506501
0.658925
0.900213
1.07173
0.894314
1.06549
0.956349
1.18119
0.945489
1.16919
1.08
0.908242
1.07675
0.905074
1.19813
0.971577
1.19121
0.965271
0.583502
0.419611
0.580523
0.416825
0.681202
0.526392
0.675741
0.521456
0.351012
0.350956
0.348336
0.348281
0.462258
0.462188
0.457565
0.457497
0.419438
0.583214
0.416656
0.580242
0.526161
0.680758
0.521232
0.675308
0.907885
1.07969
0.904725
1.07645
0.970846
1.19715
0.964559
1.19025
1.08327
0.911629
1.08218
0.910442
1.20605
0.978854
1.20284
0.975884
0.586942
0.422944
0.585676
0.421689
0.687668
0.532302
0.685009
0.529852
0.354261
0.354203
0.353025
0.352968
0.467905
0.467831
0.465553
0.465481
0.422765
0.586645
0.421513
0.585383
0.532061
0.687206
0.529616
0.684554
0.911263
1.08295
0.91008
1.08187
0.978097
1.20503
0.975138
1.20184
1.08321
0.911983
1.08362
0.912165
1.2081
0.980882
1.20761
0.980338
0.587746
0.423923
0.587684
0.423745
0.689762
0.534357
0.689109
0.533669
0.355302
0.355242
0.355075
0.355016
0.469934
0.469859
0.469233
0.469158
0.423742
0.587444
0.423564
0.587385
0.534111
0.68929
0.533426
0.688641
0.911612
1.0829
0.911795
1.0833
0.98011
1.20707
0.979571
1.20658
1.08092
0.910339
1.08238
0.911449
1.20649
0.979607
1.20769
0.980567
0.58686
0.423399
0.587559
0.423881
0.689062
0.533912
0.689653
0.534327
0.354924
0.354864
0.355313
0.355254
0.469594
0.469518
0.469935
0.469859
0.423216
0.586558
0.423699
0.587257
0.533664
0.688587
0.53408
0.68918
0.909966
1.0806
0.911076
1.08206
0.978829
1.20545
0.979792
1.20665
1.07697
0.907211
1.07917
0.908983
1.20197
0.975745
1.2044
0.977816
0.584697
0.421748
0.585973
0.422751
0.686233
0.531613
0.687773
0.532873
0.353498
0.353439
0.35438
0.35432
0.467527
0.467452
0.468665
0.468589
0.421566
0.584395
0.422569
0.58567
0.531365
0.685759
0.532626
0.687298
0.906839
1.07666
0.90861
1.07885
0.974969
1.20093
0.977037
1.20335
1.0719
0.903098
1.07462
0.905323
1.19562
0.970262
1.1989
0.97308
0.581716
0.419385
0.583366
0.420713
0.682087
0.528161
0.684231
0.529944
0.35141
0.351351
0.352592
0.352533
0.46438
0.464305
0.466002
0.465927
0.419204
0.581416
0.420531
0.583065
0.527916
0.681616
0.529698
0.683759
0.90273
1.07158
0.904952
1.0743
0.969492
1.19459
0.972305
1.19785
1.06596
0.898256
1.06909
0.900823
1.18793
0.963594
1.19183
0.966963
0.57814
0.416512
0.580068
0.418077
0.676986
0.523884
0.679572
0.526049
0.348852
0.348793
0.350252
0.350193
0.460464
0.46039
0.462441
0.462367
0.416333
0.577844
0.417897
0.57977
0.523641
0.676521
0.525805
0.679105
0.897893
1.06565
0.900456
1.06878
0.962832
1.1869
0.966196
1.1908
1.05931
0.892826
1.06279
0.895675
1.17917
0.955998
1.18357
0.959809
0.574099
0.413245
0.576249
0.414997
0.671149
0.518974
0.674085
0.521439
0.345933
0.345876
0.347504
0.347446
0.455961
0.455888
0.458216
0.458143
0.413069
0.573807
0.41482
0.575955
0.518736
0.670692
0.521199
0.673624
0.892468
1.05901
0.895314
1.06248
0.955248
1.17816
0.959053
1.18256
1.05203
0.886881
1.05581
0.889979
1.1695
0.947617
1.17435
0.951809
0.569659
0.409648
0.572002
0.41156
0.664697
0.51354
0.667931
0.516258
0.342715
0.342658
0.344431
0.344374
0.450972
0.450901
0.453463
0.453391
0.409474
0.569372
0.411385
0.571713
0.513306
0.664248
0.516023
0.667478
0.886529
1.05174
0.889624
1.05551
0.94688
1.16851
0.951064
1.17334
1.04415
0.880461
1.04823
0.883796
1.159
0.938521
1.16426
0.943067
0.564856
0.40575
0.567379
0.40781
0.657691
0.507633
0.661199
0.510585
0.339225
0.33917
0.341075
0.341019
0.445547
0.445478
0.448253
0.448183
0.40558
0.564574
0.407639
0.567094
0.507405
0.65725
0.510354
0.660754
0.880117
1.04386
0.883448
1.04794
0.937798
1.15803
0.942337
1.16327
1.03569
0.87358
1.04006
0.877144
1.1477
0.92874
1.15336
0.933628
0.559703
0.401567
0.5624
0.403769
0.650156
0.50128
0.653927
0.504454
0.335479
0.335424
0.337456
0.337401
0.43971
0.439642
0.442621
0.442552
0.401401
0.559427
0.403601
0.562121
0.501056
0.649726
0.504228
0.653492
0.873243
1.03541
0.876804
1.03977
0.928032
1.14675
0.932912
1.1524
1.02664
0.866242
1.03131
0.870035
1.13563
0.918291
1.14168
0.923514
0.554208
0.397105
0.557076
0.399446
0.642107
0.49449
0.646136
0.497883
0.33148
0.331427
0.333583
0.333529
0.43347
0.433404
0.436583
0.436516
0.396941
0.553938
0.399281
0.556803
0.494272
0.641687
0.497662
0.645711
0.865913
1.02637
0.869701
1.03103
0.917599
1.1347
0.922813
1.14073
1.01702
0.858452
1.02197
0.86247
1.12279
0.907179
1.12922
0.912735
0.548373
0.392365
0.551411
0.394844
0.63355
0.487271
0.637834
0.490879
0.327234
0.327182
0.32946
0.329408
0.426836
0.426771
0.430147
0.430082
0.392206
0.54811
0.394683
0.551144
0.487059
0.63314
0.490664
0.637419
0.858132
1.01676
0.862145
1.0217
0.906503
1.12188
0.912051
1.1283
1.00683
0.850215
1.01206
0.854455
1.10918
0.895411
1.116
0.901295
0.542203
0.387353
0.545408
0.389968
0.624492
0.479629
0.629027
0.483449
0.322743
0.322692
0.325091
0.325039
0.419812
0.41975
0.423319
0.423255
0.387198
0.541945
0.389811
0.545147
0.479423
0.624094
0.483241
0.628623
0.849902
1.00657
0.854138
1.0118
0.894753
1.1083
0.900628
1.1151
0.996077
0.841538
1.00159
0.845996
1.09483
0.883004
1.10202
0.889208
0.535702
0.382072
0.539071
0.38482
0.614943
0.471572
0.619724
0.475601
0.318011
0.317961
0.320478
0.320428
0.412408
0.412347
0.416105
0.416044
0.381921
0.535451
0.384667
0.538817
0.471373
0.614556
0.475398
0.619332
0.841235
0.995827
0.845688
1.00133
0.882363
1.09397
0.888558
1.10114
0.984783
0.832434
0.990562
0.837104
1.07976
0.869963
1.08731
0.876486
0.528877
0.376527
0.532407
0.379406
0.604912
0.463109
0.609935
0.467341
0.313041
0.312993
0.315626
0.315578
0.40463
0.404571
0.408514
0.408455
0.37638
0.528634
0.379257
0.53216
0.462916
0.604537
0.467145
0.609554
0.832139
0.984542
0.836804
0.990316
0.869342
1.07892
0.875855
1.08645
0.972969
0.822911
0.979006
0.827789
1.06397
0.856293
1.07188
0.863133
0.521734
0.37072
0.525422
0.37373
0.594401
0.454243
0.599665
0.458678
0.307837
0.307791
0.310539
0.310492
0.396483
0.396427
0.400553
0.400496
0.370578
0.521498
0.373585
0.525183
0.454057
0.594039
0.458489
0.599297
0.822626
0.972737
0.827499
0.978768
0.855691
1.06315
0.862521
1.07105
0.960647
0.812975
0.966935
0.818059
1.04746
0.841997
1.05573
0.849149
0.514272
0.364651
0.51812
0.367792
0.583412
0.444973
0.588918
0.449612
0.302395
0.30235
0.305216
0.30517
0.387966
0.387912
0.392224
0.392169
0.364513
0.514044
0.367652
0.517888
0.444794
0.583063
0.44943
0.588562
0.8127
0.960423
0.817779
0.966707
0.841416
1.04668
0.848557
1.05493
0.947818
0.802607
0.954359
0.807909
1.03024
0.827113
1.03888
0.834563
0.506477
0.358303
0.510493
0.361585
0.571927
0.435276
0.577687
0.440135
0.296702
0.296659
0.29965
0.299606
0.379056
0.379005
0.383517
0.383464
0.358171
0.506256
0.36145
0.510268
0.435105
0.571591
0.43996
0.577345
0.802342
0.947604
0.807639
0.95414
0.826553
1.02948
0.833993
1.0381
0.934473
0.791789
0.941273
0.797317
1.01223
0.811535
1.02127
0.819351
0.498317
0.351648
0.502519
0.355088
0.559882
0.425102
0.565934
0.43021
0.290727
0.290685
0.29382
0.293777
0.369709
0.36966
0.374398
0.374347
0.35152
0.498106
0.354957
0.502303
0.424938
0.55956
0.430043
0.565605
0.791535
0.934269
0.797057
0.941064
0.810998
1.0115
0.818802
1.02053
0.920571
0.780471
0.927656
0.786257
0.993301
0.795139
1.00282
0.803383
0.489739
0.34463
0.494158
0.348258
0.547178
0.414364
0.553576
0.419769
0.284418
0.284378
0.287684
0.287644
0.359842
0.359796
0.364805
0.364757
0.344507
0.489537
0.348133
0.493951
0.414209
0.546872
0.41961
0.553263
0.780228
0.920377
0.786008
0.927456
0.794625
0.992603
0.802857
1.00211
0.906029
0.768562
0.913445
0.774656
0.973281
0.777764
0.98338
0.786524
0.480654
0.337167
0.485338
0.341028
0.533673
0.402935
0.540495
0.408706
0.277697
0.277659
0.28118
0.281141
0.349339
0.349295
0.354639
0.354594
0.337051
0.480461
0.340909
0.48514
0.402789
0.533383
0.408555
0.540197
0.768331
0.905846
0.774418
0.913256
0.777276
0.972616
0.786023
0.982695
0.890718
0.755928
0.898536
0.762402
0.951901
0.759185
0.962722
0.768583
0.470937
0.329144
0.475954
0.333301
0.519165
0.390637
0.52652
0.39687
0.270453
0.270417
0.274211
0.274175
0.338031
0.33799
0.343759
0.343717
0.329034
0.470754
0.333187
0.475765
0.390501
0.518893
0.396729
0.526239
0.75571
0.890546
0.762177
0.898358
0.758724
0.951271
0.768108
0.962072
0.87445
0.742383
0.882772
0.749336
0.928785
0.739086
0.94053
0.749292
0.460415
0.320403
0.465856
0.324939
0.503386
0.377236
0.511416
0.384055
0.262537
0.262503
0.266651
0.266616
0.325701
0.325663
0.331973
0.331934
0.320299
0.460243
0.324832
0.465678
0.37711
0.503133
0.383924
0.511153
0.742179
0.874291
0.749124
0.882606
0.738656
0.928194
0.748846
0.939918
0.856981
0.727702
0.865935
0.735252
0.903435
0.717057
0.91637
0.728283
0.448866
0.310735
0.45485
0.315762
0.485995
0.362434
0.49488
0.369997
0.25375
0.253719
0.258326
0.258293
0.31207
0.312037
0.319033
0.318998
0.31064
0.448706
0.315662
0.454684
0.36232
0.485764
0.369878
0.494638
0.727513
0.856836
0.735055
0.865783
0.71666
0.902888
0.727869
0.915798
0.838035
0.711575
0.847756
0.719889
0.875249
0.692694
0.889685
0.705143
0.435983
0.299849
0.442678
0.305527
0.466567
0.345846
0.476534
0.35436
0.243815
0.243787
0.249004
0.248974
0.296785
0.296757
0.304628
0.304597
0.299762
0.435838
0.305436
0.442525
0.345746
0.466361
0.354253
0.476316
0.711403
0.837907
0.719708
0.847619
0.692335
0.874751
0.704764
0.88916
0.817558
0.693573
0.82801
0.702895
0.843699
0.665544
0.859857
0.679451
0.421205
0.287234
0.42895
0.293861
0.444453
0.326927
0.455873
0.336692
0.232297
0.232273
0.238343
0.238317
0.279398
0.279374
0.288355
0.288329
0.287157
0.421075
0.293779
0.428812
0.326844
0.444276
0.3366
0.455681
0.693421
0.817447
0.702733
0.827889
0.665229
0.843257
0.679113
0.859384
0.797288
0.671762
0.807098
0.683512
0.80983
0.634533
0.826745
0.65066
0.402635
0.271736
0.412702
0.280014
0.418116
0.304832
0.43196
0.316314
0.218501
0.21848
0.225786
0.225763
0.259472
0.259454
0.269738
0.269717
0.271671
0.402523
0.279943
0.41258
0.304766
0.417971
0.316239
0.4318
0.67163
0.797196
0.683369
0.806996
0.634267
0.809452
0.650368
0.826333
0.794815
0.626668
0.791185
0.656164
0.778526
0.583796
0.79421
0.614707
0.372463
0.251146
0.389999
0.262252
0.382654
0.278867
0.402008
0.292267
0.201792
0.201775
0.210554
0.210535
0.237376
0.237363
0.248565
0.24855
0.251093
0.372372
0.262192
0.389897
0.27882
0.382545
0.29221
0.401882
0.626558
0.794737
0.656042
0.791101
0.58359
0.77822
0.614469
0.793866
0.489844
0.386844
0.270813
0.217235
0.426169
0.335624
0.221637
0.179242
0.160525
0.058282
0.0636241
0.0147405
0.128621
0.0406335
0.0455226
0.0105091
0.0202991
0.0203072
0.00592305
0.00592548
0.0121237
0.0121304
0.00483761
0.00483897
0.0582966
0.160529
0.0147482
0.0636412
0.0406487
0.128629
0.0105144
0.0455403
0.386851
0.489884
0.217257
0.270855
0.335636
0.426206
0.179267
0.221676
0.757199
0.61054
0.643837
0.513373
0.674293
0.539777
0.569316
0.45131
0.320861
0.172075
0.246784
0.11524
0.267744
0.134076
0.203454
0.0869798
0.109566
0.109564
0.0605695
0.060575
0.0794675
0.0794687
0.0397968
0.0398037
0.172063
0.320834
0.115242
0.246774
0.134072
0.267727
0.086986
0.20345
0.610516
0.757213
0.513365
0.643864
0.539759
0.674306
0.451308
0.569342
0.920962
0.756569
0.846991
0.689826
0.826009
0.672946
0.757337
0.611955
0.442358
0.274479
0.385447
0.225433
0.37404
0.221038
0.324054
0.179082
0.202467
0.202454
0.157455
0.157448
0.15729
0.157282
0.119244
0.119241
0.274439
0.442295
0.225407
0.385402
0.221009
0.37399
0.179066
0.32402
0.75651
0.920952
0.689784
0.846992
0.672892
0.825992
0.61192
0.757335
1.0366
0.863337
0.983279
0.813773
0.93454
0.771524
0.884269
0.72557
0.53745
0.35938
0.492777
0.319119
0.458554
0.294761
0.41868
0.259636
0.281822
0.2818
0.244009
0.243992
0.225483
0.225465
0.19283
0.192817
0.359313
0.53735
0.319066
0.492695
0.294706
0.458465
0.259594
0.418611
0.863246
1.03657
0.813697
0.983258
0.771431
0.934495
0.725497
0.884238
1.12193
0.943793
1.08244
0.906408
1.01589
0.846933
0.97809
0.811758
0.611775
0.427588
0.577003
0.395512
0.525582
0.354872
0.494112
0.32651
0.346483
0.346451
0.315992
0.315965
0.281853
0.281826
0.255188
0.255166
0.427497
0.611643
0.395433
0.576886
0.354791
0.525456
0.326442
0.494004
0.943675
1.12188
0.906302
1.08241
0.846804
1.01582
0.811646
0.978031
1.18488
1.00398
1.15586
0.976157
1.07683
0.904084
1.04861
0.877577
0.668707
0.480727
0.642272
0.455968
0.577502
0.402177
0.553329
0.380083
0.397304
0.397265
0.37358
0.373545
0.32658
0.326545
0.305653
0.305622
0.480615
0.668546
0.455866
0.642125
0.402073
0.577342
0.37999
0.553186
1.00384
1.18483
0.976028
1.15581
0.903922
1.07674
0.87743
1.04853
1.23034
1.04791
1.20956
1.02779
1.12141
0.946224
1.10098
0.926875
0.711031
0.520735
0.691581
0.502301
0.616405
0.438031
0.598492
0.421482
0.435821
0.435775
0.418047
0.418005
0.360685
0.360643
0.344923
0.344884
0.520605
0.710848
0.502179
0.691409
0.437906
0.616217
0.421368
0.598317
1.04776
1.23029
1.02764
1.20952
0.946034
1.1213
0.926698
1.10088
1.26199
1.07882
1.24772
1.06485
1.15275
0.976102
1.13859
0.962573
0.741339
0.549705
0.727599
0.536538
0.644405
0.46409
0.631693
0.452233
0.463867
0.463816
0.451102
0.451054
0.385599
0.385551
0.37425
0.374205
0.54956
0.741139
0.5364
0.727407
0.463948
0.644192
0.4521
0.631491
1.07865
1.26195
1.06469
1.24768
0.975889
1.15263
0.96237
1.13847
1.28284
1.09944
1.27363
1.0903
1.17357
0.996165
1.16435
0.987256
0.762005
0.5697
0.752811
0.560777
0.663549
0.482095
0.655022
0.474055
0.483337
0.483281
0.474634
0.474581
0.402901
0.402847
0.395165
0.395114
0.569544
0.761791
0.560626
0.752603
0.481939
0.663316
0.473906
0.654798
1.09927
1.2828
1.09013
1.27359
0.995935
1.17345
0.987034
1.16423
1.29546
1.11219
1.29009
1.10673
1.18634
1.00866
1.18088
1.00329
0.775199
0.582679
0.769498
0.577042
0.67579
0.49377
0.670493
0.488697
0.496069
0.49601
0.490525
0.490468
0.414192
0.414135
0.409275
0.40922
0.582515
0.774975
0.576881
0.769279
0.493604
0.675543
0.488536
0.670253
1.11201
1.29543
1.10655
1.29005
1.00842
1.1862
1.00305
1.18075
1.30194
1.11905
1.29941
1.11631
1.19306
1.01549
1.19039
1.01274
0.782774
0.590356
0.779676
0.587179
0.682834
0.500659
0.679945
0.497806
0.503696
0.503635
0.500522
0.500462
0.420927
0.420867
0.418125
0.418066
0.590187
0.782544
0.587012
0.779449
0.500486
0.682577
0.497636
0.679692
1.11887
1.30191
1.11613
1.29938
1.01524
1.19292
1.01249
1.19026
1.30395
1.12163
1.30348
1.12086
1.19538
1.0182
1.19475
1.01735
0.786255
0.594166
0.785044
0.592769
0.686099
0.504065
0.684949
0.502814
0.507594
0.507533
0.506137
0.506076
0.424344
0.424283
0.423068
0.423007
0.593993
0.786021
0.592598
0.784811
0.503887
0.685836
0.502638
0.684689
1.12145
1.30392
1.12068
1.30346
1.01794
1.19525
1.01709
1.19461
1.30285
1.12121
1.30377
1.12178
1.19466
1.01804
1.19538
1.01847
0.786843
0.595231
0.786946
0.595088
0.686699
0.505008
0.68676
0.504882
0.508848
0.508786
0.5086
0.508537
0.425417
0.425355
0.425212
0.42515
0.595056
0.786608
0.594914
0.786711
0.504828
0.686433
0.504703
0.686495
1.12103
1.30283
1.1216
1.30375
1.01778
1.19452
1.01821
1.19524
1.2995
1.1187
1.30147
1.12025
1.19177
1.01589
1.19351
1.01724
0.785482
0.594474
0.78647
0.595142
0.685537
0.504344
0.686397
0.50493
0.508343
0.50828
0.508869
0.508807
0.424959
0.424897
0.425424
0.425362
0.594299
0.785247
0.594967
0.786235
0.504164
0.68527
0.504749
0.68613
1.11852
1.29949
1.12007
1.30146
1.01564
1.19163
1.01699
1.19337
1.29456
1.11469
1.29727
1.11692
1.18732
1.01233
1.18977
1.01433
0.782699
0.592384
0.784341
0.593672
0.683076
0.502494
0.684529
0.50363
0.506566
0.506503
0.507691
0.507628
0.423381
0.423319
0.424373
0.424311
0.59221
0.782466
0.593498
0.784106
0.502314
0.68281
0.50345
0.684262
1.11451
1.29454
1.11675
1.29725
1.01208
1.18719
1.01408
1.18964
1.28845
1.10962
1.2917
1.11234
1.18177
1.00779
1.18473
1.01024
0.778951
0.589405
0.781035
0.591099
0.67975
0.499867
0.681599
0.501357
0.503939
0.503877
0.50545
0.505388
0.421071
0.42101
0.422396
0.422334
0.589232
0.77872
0.590925
0.780802
0.499688
0.679487
0.501177
0.681334
1.10945
1.28844
1.11217
1.29169
1.00753
1.18164
1.00998
1.18461
1.28144
1.10376
1.28512
1.10686
1.17536
1.0025
1.17873
1.0053
0.774497
0.585786
0.77691
0.587776
0.675793
0.496683
0.677937
0.498432
0.500709
0.500647
0.502499
0.502437
0.418242
0.418182
0.419807
0.419746
0.585616
0.774269
0.587605
0.77668
0.496506
0.675533
0.498254
0.677675
1.10359
1.28144
1.10669
1.28511
1.00226
1.17524
1.00505
1.17861
1.27367
1.09725
1.27772
1.10066
1.16824
0.996618
1.17196
0.999706
0.769483
0.581674
0.772163
0.583898
0.671337
0.493068
0.673719
0.495021
0.497017
0.496957
0.499025
0.498964
0.415015
0.414955
0.416768
0.416708
0.581506
0.76926
0.583729
0.771937
0.492894
0.671081
0.494846
0.673461
1.09709
1.27367
1.10049
1.27771
0.996376
1.16812
0.999461
1.17183
1.2652
1.09015
1.26959
1.09384
1.16046
0.990199
1.16449
0.993545
0.763992
0.577149
0.766903
0.579571
0.666453
0.48909
0.669042
0.491218
0.492945
0.492885
0.495136
0.495076
0.411457
0.411398
0.413369
0.41331
0.576984
0.763773
0.579405
0.766681
0.488919
0.666201
0.491046
0.668788
1.09
1.2652
1.09369
1.26959
0.989962
1.16034
0.993305
1.16438
1.25609
1.08253
1.2608
1.08649
1.15207
0.983288
1.15641
0.986879
0.758068
0.572253
0.761192
0.574857
0.661178
0.484785
0.66396
0.487074
0.488532
0.488474
0.490889
0.49083
0.4076
0.407542
0.409659
0.4096
0.572091
0.757853
0.574693
0.760974
0.484616
0.660931
0.486904
0.663711
1.08238
1.2561
1.08633
1.2608
0.983057
1.15195
0.986644
1.15629
1.24634
1.07439
1.25136
1.0786
1.14307
0.975895
1.14771
0.979725
0.751728
0.567006
0.755058
0.569784
0.655528
0.480167
0.658496
0.482611
0.483798
0.483741
0.486314
0.486256
0.403461
0.403404
0.405659
0.405602
0.566847
0.751518
0.569623
0.754845
0.480002
0.655286
0.482444
0.658252
1.07424
1.24634
1.07845
1.25137
0.975669
1.14296
0.979496
1.1476
1.23594
1.06573
1.24129
1.0702
1.13346
0.968025
1.13841
0.972092
0.744979
0.561415
0.748512
0.564363
0.649508
0.475245
0.65266
0.47784
0.478753
0.478697
0.481423
0.481366
0.399047
0.398992
0.401382
0.401325
0.56126
0.744774
0.564206
0.748304
0.475083
0.649271
0.477676
0.65242
1.06559
1.23595
1.07005
1.24129
0.967805
1.13336
0.971869
1.13831
1.22491
1.05656
1.23057
1.06128
1.12326
0.959683
1.12851
0.963985
0.737827
0.555486
0.74156
0.558602
0.643123
0.470021
0.646456
0.472765
0.4734
0.473345
0.476222
0.476166
0.394362
0.394307
0.396831
0.396776
0.555334
0.737626
0.558448
0.741356
0.469863
0.642892
0.472606
0.646222
1.05642
1.22493
1.06114
1.23058
0.959469
1.12317
0.963767
1.12841
1.21326
1.04689
1.21923
1.05186
1.11247
0.950874
1.11801
0.955408
0.730275
0.549222
0.734206
0.552504
0.636376
0.464498
0.639889
0.467391
0.467742
0.467688
0.470715
0.470661
0.389407
0.389354
0.39201
0.391956
0.549074
0.73008
0.552354
0.734008
0.464344
0.63615
0.467235
0.639661
1.04676
1.21328
1.05173
1.21924
0.950666
1.11238
0.955197
1.11791
1.20099
1.03672
1.20727
1.04194
1.1011
0.941603
1.10692
0.946365
0.722327
0.542626
0.726455
0.546073
0.629271
0.458681
0.632962
0.46172
0.461782
0.46173
0.464904
0.464852
0.384188
0.384136
0.386921
0.386869
0.542482
0.722138
0.545926
0.726262
0.458531
0.629052
0.461568
0.632739
1.03659
1.20101
1.04181
1.20728
0.941401
1.10101
0.94616
1.10683
1.18813
1.02606
1.1947
1.03152
1.08917
0.931884
1.09527
0.936866
0.713991
0.535701
0.71831
0.53931
0.621817
0.452574
0.62568
0.455756
0.455522
0.455471
0.458793
0.458742
0.378706
0.378655
0.381569
0.381518
0.53556
0.713807
0.539167
0.718123
0.452428
0.621604
0.455608
0.625464
1.02594
1.18816
1.03139
1.19472
0.931689
1.08908
0.936668
1.09518
1.17471
1.01493
1.18155
1.02062
1.0767
0.921735
1.08306
0.92693
0.705269
0.528447
0.70978
0.532219
0.614019
0.446179
0.618053
0.449504
0.44896
0.448911
0.452381
0.452331
0.372963
0.372913
0.375955
0.375906
0.52831
0.70509
0.532081
0.709598
0.446037
0.613813
0.44936
0.617843
1.01481
1.17473
1.0205
1.18157
0.921548
1.07662
0.926738
1.08298
1.16074
1.00333
1.16785
1.00925
1.06371
0.911166
1.07033
0.91657
0.69616
0.520857
0.700863
0.524797
0.605878
0.439492
0.610083
0.442962
0.442089
0.442041
0.445665
0.445616
0.366953
0.366906
0.370079
0.370031
0.520725
0.695987
0.524663
0.700687
0.439354
0.605678
0.442823
0.609879
1.00322
1.16076
1.00914
1.16787
0.910986
1.06363
0.916386
1.07025
1.14624
0.991302
1.15362
0.997437
1.05021
0.900143
1.05708
0.905777
0.686658
0.512915
0.691558
0.517033
0.597374
0.432496
0.601762
0.436123
0.434887
0.434841
0.438631
0.438583
0.360661
0.360615
0.36393
0.363883
0.512787
0.686492
0.516903
0.691389
0.432363
0.597181
0.435987
0.601565
0.991198
1.14627
0.997329
1.15364
0.89997
1.05014
0.9056
1.05701
1.1312
0.97879
1.13885
0.985172
1.0362
0.888665
1.04333
0.894523
0.676722
0.504578
0.681844
0.508898
0.588481
0.425158
0.593066
0.42896
0.427313
0.427268
0.431247
0.431201
0.354051
0.354006
0.357482
0.357437
0.504455
0.676562
0.508772
0.681681
0.42503
0.588295
0.428829
0.592876
0.978691
1.13123
0.98507
1.13888
0.888499
1.03614
0.894354
1.04326
1.1156
0.96574
1.12353
0.972395
1.02166
0.876696
1.02906
0.882806
0.666286
0.495779
0.671665
0.500338
0.579144
0.417421
0.583957
0.421429
0.419298
0.419255
0.42346
0.423416
0.347066
0.347024
0.350692
0.350648
0.495661
0.666133
0.500217
0.671509
0.417298
0.578965
0.421303
0.583775
0.965646
1.11563
0.972299
1.12356
0.876539
1.02161
0.882644
1.029
1.09938
0.952082
1.10762
0.95905
1.00652
0.864155
1.01423
0.870561
0.65526
0.486422
0.660945
0.491272
0.569276
0.409199
0.574366
0.41346
0.410747
0.410706
0.415189
0.415147
0.339623
0.339582
0.343488
0.343447
0.486309
0.655113
0.491156
0.660796
0.409081
0.569106
0.413339
0.574192
0.951995
1.09941
0.958959
1.10765
0.864006
1.00647
0.870407
1.01417
1.08245
0.937712
1.09106
0.945049
0.990675
0.850928
0.998746
0.857691
0.643515
0.476373
0.649576
0.481585
0.558755
0.400369
0.564187
0.404949
0.401524
0.401485
0.406319
0.406278
0.3316
0.331562
0.33577
0.335731
0.476264
0.643376
0.481474
0.649433
0.400257
0.558593
0.404834
0.564021
0.93763
1.08249
0.944964
1.09109
0.850788
0.990629
0.857546
0.998696
1.06469
0.92248
1.07373
0.930266
0.973978
0.836854
0.982494
0.844061
0.630877
0.46545
0.637407
0.471122
0.54741
0.390765
0.553276
0.395753
0.391448
0.391411
0.396692
0.396654
0.322838
0.322801
0.327398
0.327361
0.465347
0.630746
0.471016
0.637271
0.390659
0.547258
0.395644
0.553119
0.922405
1.06473
0.930187
1.07377
0.836723
0.973938
0.843925
0.98245
1.04598
0.906218
1.05551
0.914537
0.956251
0.821718
0.965301
0.829482
0.617126
0.453411
0.62424
0.459673
0.53502
0.380165
0.541437
0.385681
0.380272
0.380237
0.3861
0.386064
0.313114
0.31308
0.318185
0.31815
0.453315
0.617003
0.459574
0.624113
0.380066
0.534878
0.385579
0.54129
0.906149
1.04602
0.914465
1.05555
0.821597
0.956217
0.829355
0.965263
1.02631
0.888781
1.03629
0.897698
0.937364
0.805313
0.946997
0.813733
0.601959
0.439892
0.609824
0.446949
0.521279
0.368238
0.528415
0.374466
0.367617
0.367585
0.37424
0.374206
0.302103
0.302072
0.307865
0.307833
0.439802
0.601845
0.446856
0.609705
0.368147
0.521148
0.374371
0.528279
0.888719
1.02635
0.897632
1.03633
0.805203
0.937337
0.813617
0.946966
1.0064
0.87005
1.01631
0.879637
0.917624
0.787332
0.927575
0.796598
0.584746
0.424179
0.593757
0.432458
0.505561
0.354354
0.513807
0.361671
0.352819
0.35279
0.360621
0.36059
0.289242
0.289214
0.296018
0.295988
0.424097
0.584641
0.432372
0.593648
0.354272
0.505442
0.361584
0.513682
0.869994
1.00644
0.879578
1.01635
0.787233
0.917605
0.796494
0.927551
0.991086
0.848498
0.997421
0.859977
0.900324
0.765844
0.90813
0.777408
0.563047
0.404532
0.574859
0.415096
0.485551
0.336989
0.496466
0.346325
0.33469
0.334664
0.344334
0.344306
0.273545
0.273521
0.281885
0.281859
0.404458
0.562951
0.415018
0.574759
0.336916
0.485446
0.346247
0.496353
0.848445
0.991128
0.859922
0.997463
0.765756
0.900312
0.777315
0.908114
1.01325
0.802184
0.992819
0.833179
0.912265
0.71954
0.898718
0.750262
0.526896
0.377789
0.548017
0.392271
0.452008
0.313332
0.471615
0.326147
0.312125
0.312102
0.324017
0.323992
0.254087
0.254067
0.264335
0.264312
0.377725
0.526811
0.392201
0.547925
0.313271
0.451918
0.32608
0.471516
0.80213
1.01328
0.833126
0.992857
0.719462
0.912252
0.750179
0.898707
0.563825
0.448028
0.330188
0.264411
0.533147
0.422393
0.305504
0.244245
0.201833
0.0840696
0.0885331
0.0224944
0.18414
0.0726692
0.077645
0.0187492
0.0356146
0.035623
0.00844724
0.0084512
0.028313
0.0283212
0.00721503
0.00721861
0.0840796
0.201828
0.0225078
0.0885445
0.0726814
0.18414
0.0187596
0.0776598
0.448026
0.563866
0.264426
0.33023
0.422396
0.533188
0.244264
0.305547
0.857062
0.697855
0.731278
0.588007
0.815063
0.660832
0.694802
0.55661
0.390914
0.226885
0.302801
0.155874
0.36071
0.202664
0.278793
0.137943
0.156297
0.156291
0.0936584
0.0936599
0.135244
0.13524
0.078708
0.0787114
0.226861
0.39087
0.155867
0.302777
0.202646
0.360675
0.137941
0.278776
0.697818
0.857077
0.587988
0.731306
0.660801
0.815078
0.556596
0.69483
1.0422
0.866091
0.958236
0.788872
0.990305
0.818832
0.911032
0.746501
0.537228
0.354591
0.468547
0.293489
0.495679
0.318785
0.432437
0.263258
0.274098
0.274079
0.217153
0.21714
0.241612
0.241596
0.190196
0.190186
0.354534
0.537144
0.293448
0.468482
0.318736
0.495605
0.263224
0.432382
0.866021
1.04219
0.788817
0.958241
0.818767
0.990298
0.746453
0.911034
1.17348
0.989746
1.11303
0.932404
1.11399
0.934375
1.05705
0.880805
0.651849
0.459892
0.598078
0.410055
0.601078
0.414473
0.551632
0.369174
0.373932
0.373903
0.32646
0.326436
0.331783
0.331757
0.288892
0.288871
0.459807
0.651732
0.409983
0.597976
0.414396
0.600969
0.369111
0.551539
0.989654
1.17347
0.932322
1.11303
0.934284
1.11397
0.880726
1.05703
1.2696
1.08235
1.22525
1.03942
1.20467
1.02095
1.16279
0.980794
0.740876
0.543904
0.699311
0.504471
0.683011
0.490906
0.64474
0.455014
0.454723
0.454685
0.416694
0.41666
0.404841
0.404806
0.370437
0.370406
0.543798
0.740735
0.504375
0.69918
0.490806
0.682873
0.454926
0.644615
1.08225
1.26961
1.03932
1.22524
1.02084
1.20465
0.980692
1.16277
1.33983
1.15108
1.30754
1.11938
1.27108
1.08534
1.24052
1.05562
0.808635
0.608988
0.777225
0.578705
0.745461
0.550191
0.7165
0.522598
0.517898
0.517854
0.488445
0.488403
0.462031
0.461989
0.43536
0.435321
0.608866
0.808478