/*--------------------------------*- C++ -*----------------------------------*\
  =========                 |
  \\      /  F ield         | OpenFOAM: The Open Source CFD Toolbox
   \\    /   O peration     | Website:  https://openfoam.org
    \\  /    A nd           | Version:  9
     \\/     M anipulation  |
\*---------------------------------------------------------------------------*/
FoamFile
{
    format      ascii;
    class       volScalarField;
    location    "3.1";
    object      k;
}
// * * * * * * * * * * * * * * * * * * * * * * * * * * * * * * * * * * * * * //

dimensions      [0 2 -2 0 0 0 0];

internalField   nonuniform List<scalar> 
36360
(
0.101574
0.0844733
0.0515116
0.0454656
0.0263183
0.0214831
0.00790098
0.00788949
0.039131
0.0142599
0.0138468
0.00447847
0.00851792
0.0035648
0.00395021
0.00293435
0.00494929
0.00495377
0.00278952
0.00279006
0.00226654
0.00226704
0.00296164
0.00296159
0.0142722
0.0391405
0.0044811
0.0138572
0.00356675
0.00852186
0.00293461
0.00395133
0.0844809
0.101579
0.0454759
0.0515184
0.0214872
0.0263217
0.0078925
0.00790217
0.161402
0.136789
0.135955
0.113888
0.0545321
0.0433903
0.0426145
0.0335238
0.0811233
0.0489864
0.061621
0.0314727
0.0256837
0.0139515
0.0174749
0.0070793
0.0339378
0.0339414
0.0160208
0.0160282
0.00794948
0.00795228
0.00336685
0.0033686
0.0489925
0.0811261
0.0314829
0.061628
0.0139568
0.0256873
0.00708384
0.0174799
0.136787
0.161396
0.113891
0.135955
0.0433913
0.0545309
0.0335269
0.0426159
0.199141
0.172245
0.181841
0.155824
0.0714286
0.0585198
0.0637681
0.0515299
0.113646
0.0804007
0.0983258
0.0654439
0.0393782
0.0274264
0.0329306
0.0209707
0.0655036
0.0655034
0.0505138
0.0505153
0.0219407
0.0219417
0.0152457
0.0152476
0.080398
0.113637
0.0654457
0.098323
0.0274278
0.0393773
0.0209741
0.0329321
0.172228
0.199119
0.155815
0.181827
0.0585149
0.0714205
0.0515282
0.0637637
0.227332
0.199375
0.214139
0.186637
0.0838055
0.0700838
0.0780186
0.0646458
0.139481
0.105762
0.1273
0.0938008
0.0502666
0.0382908
0.0451271
0.0331807
0.0907658
0.0907625
0.0788728
0.078871
0.0329714
0.032971
0.027818
0.0278183
0.105751
0.139459
0.0937938
0.127285
0.0382886
0.0502603
0.0331803
0.0451236
0.199343
0.227291
0.186613
0.214108
0.0700718
0.0837887
0.0646375
0.0780062
0.249161
0.220561
0.238937
0.210625
0.0933835
0.0791686
0.0888957
0.0749002
0.15987
0.125776
0.150294
0.116378
0.058894
0.0467998
0.0548366
0.0428075
0.110606
0.110599
0.101297
0.101292
0.041461
0.0414594
0.0374881
0.0374871
0.125756
0.159835
0.116363
0.150266
0.046794
0.058882
0.0428035
0.0548275
0.220511
0.249102
0.210583
0.238887
0.079149
0.0933576
0.0748844
0.0888743
0.265893
0.236868
0.258096
0.229262
0.100735
0.0861938
0.0973065
0.082913
0.175641
0.141254
0.168281
0.13403
0.065587
0.0533598
0.0624602
0.0502984
0.125924
0.125915
0.118777
0.118769
0.0479638
0.0479611
0.0449318
0.0449296
0.141226
0.175593
0.134007
0.16824
0.0533507
0.0655696
0.0502909
0.0624455
0.236803
0.265816
0.229205
0.258027
0.0861668
0.1007
0.0828896
0.097276
0.278385
0.249079
0.272611
0.243431
0.10623
0.0914671
0.103689
0.0890255
0.187491
0.152895
0.182009
0.147508
0.0706223
0.0582816
0.0682905
0.0560033
0.137445
0.137434
0.132113
0.132103
0.0528312
0.0528274
0.0505786
0.0505754
0.15286
0.187432
0.147476
0.181955
0.0582694
0.0705999
0.0559926
0.0682706
0.249
0.278292
0.243358
0.272526
0.0914334
0.106187
0.088995
0.103649
0.287386
0.257902
0.283268
0.253863
0.110187
0.0952771
0.108376
0.0935313
0.196081
0.161348
0.192148
0.157476
0.0742692
0.0618433
0.0725979
0.060211
0.14582
0.145807
0.141983
0.141971
0.056351
0.0563464
0.0547378
0.0547336
0.161308
0.196013
0.157439
0.192085
0.0618285
0.0742426
0.0601975
0.0725733
0.257811
0.28728
0.253777
0.283168
0.0952376
0.110138
0.0934946
0.108329
0.29358
0.263994
0.290783
0.261241
0.112906
0.0979025
0.111677
0.0967146
0.202034
0.167223
0.199344
0.164567
0.0767893
0.0643052
0.075649
0.0631909
0.151648
0.151633
0.149012
0.148998
0.0587844
0.0587791
0.0576826
0.0576776
0.167177
0.201958
0.164524
0.199272
0.0642884
0.0767592
0.0631751
0.0756206
0.263892
0.293462
0.261144
0.290671
0.0978583
0.11285
0.0966725
0.111624
0.29759
0.267957
0.295813
0.266198
0.114663
0.0996054
0.113883
0.0988479
0.205931
0.171084
0.204201
0.169368
0.0784306
0.0659114
0.0777002
0.065196
0.155488
0.155472
0.15378
0.153765
0.0603733
0.0603674
0.059665
0.0596594
0.171035
0.205849
0.169321
0.204122
0.0658929
0.0783979
0.0651783
0.0776688
0.267848
0.297464
0.266093
0.295691
0.0995575
0.114603
0.0988016
0.113824
0.29995
0.270315
0.298936
0.269298
0.115697
0.100613
0.11525
0.100176
0.208276
0.173426
0.207264
0.172413
0.0794115
0.0668755
0.078986
0.0664563
0.157827
0.15781
0.156814
0.156797
0.061329
0.0613228
0.0609127
0.0609067
0.173374
0.20819
0.172362
0.20718
0.0668559
0.0793769
0.0664372
0.0789522
0.2702
0.299818
0.269186
0.298807
0.100562
0.115634
0.100127
0.115188
0.301104
0.2715
0.300645
0.271022
0.116207
0.101116
0.116001
0.100911
0.209489
0.174662
0.208997
0.174156
0.0799141
0.067376
0.0797075
0.0671687
0.159075
0.159057
0.158562
0.158544
0.0618283
0.0618218
0.0616206
0.0616142
0.174609
0.2094
0.174104
0.208909
0.0673556
0.0798783
0.0671487
0.0796723
0.271382
0.300967
0.270906
0.30051
0.101063
0.116142
0.100859
0.115936
0.301388
0.271846
0.301328
0.271752
0.11634
0.101256
0.116308
0.101218
0.209898
0.175116
0.209773
0.174966
0.080077
0.06755
0.0800261
0.0674917
0.159551
0.159533
0.159389
0.159371
0.0620075
0.0620009
0.0619455
0.061939
0.175061
0.209808
0.174912
0.209683
0.0675292
0.0800404
0.0674711
0.0799899
0.271725
0.30125
0.271632
0.30119
0.101203
0.116273
0.101165
0.116242
0.301099
0.271637
0.301302
0.271794
0.116237
0.101169
0.116313
0.101234
0.209774
0.175046
0.209886
0.175128
0.0800232
0.0675128
0.0800687
0.0675475
0.159509
0.15949
0.159576
0.159558
0.061978
0.0619713
0.0620078
0.0620011
0.174991
0.209682
0.175073
0.209795
0.0674919
0.0799864
0.0675267
0.0800321
0.271516
0.300959
0.271673
0.301162
0.101115
0.11617
0.101181
0.116247
0.300377
0.271017
0.300772
0.271359
0.115947
0.100903
0.116103
0.101045
0.209259
0.174602
0.20955
0.174858
0.0798043
0.0673191
0.0799235
0.0674254
0.1591
0.159082
0.159339
0.15932
0.0617963
0.0617896
0.0618964
0.0618897
0.174546
0.209168
0.174803
0.209459
0.0672982
0.0797675
0.0674045
0.0798867
0.270896
0.300237
0.271238
0.300632
0.100849
0.11588
0.100992
0.116035
0.299363
0.270125
0.299892
0.270591
0.115538
0.100525
0.115749
0.100719
0.20849
0.173912
0.208897
0.174279
0.0794827
0.0670276
0.0796491
0.0671783
0.15845
0.158432
0.158797
0.158779
0.0615188
0.0615122
0.0616619
0.0616553
0.173857
0.208399
0.174224
0.208806
0.0670068
0.0794461
0.0671574
0.0796124
0.270004
0.299225
0.27047
0.299752
0.100471
0.115472
0.100666
0.115682
0.298134
0.269034
0.298764
0.269593
0.115042
0.100064
0.115294
0.100297
0.207537
0.173047
0.20803
0.173495
0.079086
0.0666652
0.0792873
0.0668488
0.157628
0.15761
0.158054
0.158036
0.0611725
0.061166
0.0613475
0.0613409
0.172992
0.207447
0.17344
0.207939
0.0666447
0.0790497
0.0668281
0.0792509
0.268915
0.297996
0.269473
0.298625
0.100011
0.114976
0.100244
0.115227
0.296731
0.267788
0.297444
0.268421
0.114476
0.0995371
0.114761
0.0998014
0.206443
0.172048
0.207003
0.17256
0.0786308
0.0662481
0.0788599
0.0664577
0.156677
0.156659
0.157164
0.157146
0.0607731
0.0607666
0.0609733
0.0609668
0.171994
0.206354
0.172506
0.206913
0.0662278
0.078595
0.0664373
0.0788239
0.26767
0.296596
0.268302
0.297307
0.0994849
0.11441
0.0997489
0.114695
0.295179
0.26641
0.295964
0.267107
0.113849
0.0989544
0.114163
0.099246
0.20523
0.170938
0.205847
0.171503
0.078126
0.0657849
0.0783792
0.0660168
0.155617
0.1556
0.156157
0.156139
0.060329
0.0603227
0.0605509
0.0605445
0.170885
0.205142
0.17145
0.205758
0.0657649
0.0780908
0.0659967
0.0783437
0.266293
0.295045
0.266989
0.295829
0.098903
0.113785
0.0991942
0.114098
0.293488
0.264911
0.294342
0.265667
0.113166
0.0983201
0.113509
0.0986374
0.203909
0.169728
0.204579
0.170343
0.0775759
0.0652794
0.0778516
0.0655322
0.154461
0.154444
0.155048
0.155031
0.0598442
0.059838
0.0600863
0.06008
0.169676
0.203822
0.17029
0.204492
0.0652598
0.0775413
0.0655125
0.0778167
0.264796
0.293356
0.265552
0.294208
0.0982695
0.113103
0.0985864
0.113445
0.291662
0.263296
0.292584
0.26411
0.11243
0.0976357
0.112799
0.097978
0.202486
0.168423
0.203207
0.169085
0.0769823
0.0647335
0.0772797
0.0650066
0.153213
0.153196
0.153846
0.153829
0.0593203
0.0593142
0.0595819
0.0595757
0.168371
0.2024
0.169033
0.203121
0.0647143
0.0769482
0.0649871
0.0772454
0.263183
0.291533
0.263996
0.292452
0.097586
0.112368
0.0979278
0.112736
0.289704
0.261568
0.290692
0.262439
0.11164
0.0969019
0.112036
0.097269
0.200961
0.167024
0.201733
0.167733
0.0763455
0.0641476
0.0766645
0.0644407
0.151875
0.151858
0.152553
0.152536
0.0587578
0.0587518
0.0590388
0.0590327
0.166973
0.200878
0.167682
0.201649
0.0641288
0.0763121
0.0644217
0.0766309
0.261457
0.289577
0.262327
0.290563
0.0968531
0.111579
0.0972198
0.111974
0.287614
0.259725
0.288668
0.260653
0.110797
0.0961184
0.111219
0.0965105
0.199336
0.165532
0.200159
0.166288
0.0756656
0.0635217
0.0760063
0.0638349
0.150448
0.150431
0.15117
0.151154
0.0581567
0.0581508
0.0584571
0.0584511
0.165483
0.199254
0.166238
0.200076
0.0635033
0.075633
0.0638163
0.0759734
0.259617
0.287489
0.260544
0.288541
0.0960707
0.110737
0.0964623
0.111159
0.285391
0.25777
0.286512
0.258755
0.1099
0.0952853
0.110349
0.0957023
0.197611
0.163948
0.198484
0.16475
0.0749426
0.0628557
0.075305
0.0631891
0.148931
0.148915
0.149698
0.149682
0.0575169
0.0575112
0.0578367
0.0578309
0.163899
0.197531
0.164701
0.198403
0.0628378
0.0749107
0.0631709
0.0752727
0.257663
0.285269
0.258647
0.286387
0.0952385
0.109841
0.095655
0.11029
0.283037
0.255701
0.284223
0.256742
0.10895
0.0944028
0.109426
0.0948446
0.195785
0.162271
0.196708
0.163119
0.0741766
0.0621498
0.0745606
0.0625033
0.147325
0.147309
0.148137
0.148121
0.0568385
0.0568329
0.0571777
0.0571721
0.162223
0.195707
0.163071
0.196629
0.0621323
0.0741454
0.0624855
0.0745291
0.255597
0.282918
0.256637
0.284102
0.0943572
0.108892
0.0947984
0.109368
0.280553
0.253519
0.281804
0.254617
0.107947
0.0934709
0.10845
0.0939376
0.193859
0.1605
0.194833
0.161395
0.0733675
0.0614039
0.0737732
0.0617774
0.14563
0.145614
0.146487
0.146471
0.0561215
0.0561161
0.0564802
0.0564747
0.160454
0.193783
0.161348
0.194755
0.0613868
0.0733372
0.0617602
0.0737425
0.253418
0.280436
0.254514
0.281685
0.0934264
0.107891
0.0938925
0.108393
0.277939
0.251224
0.279255
0.252379
0.106892
0.092489
0.107421
0.0929809
0.191831
0.158635
0.192856
0.159578
0.0725151
0.0606176
0.0729426
0.0610115
0.143843
0.143828
0.144746
0.144731
0.0553656
0.0553604
0.0557439
0.0557386
0.15859
0.191757
0.159532
0.19278
0.060601
0.0724856
0.0609947
0.0729127
0.251125
0.277825
0.252279
0.279139
0.0924456
0.106837
0.092937
0.107365
0.275194
0.248812
0.276576
0.250026
0.105783
0.0914565
0.106339
0.0919737
0.189698
0.156672
0.190776
0.157664
0.0716184
0.0597898
0.0720683
0.0602048
0.141962
0.141947
0.142913
0.142898
0.0545697
0.0545647
0.0549684
0.0549632
0.156628
0.189626
0.15762
0.190702
0.0597738
0.0715897
0.0601886
0.0720393
0.248715
0.275083
0.249928
0.276463
0.0914143
0.10573
0.091931
0.106285
0.272313
0.246276
0.273764
0.247553
0.10462
0.0903752
0.105204
0.0909172
0.187453
0.154603
0.188588
0.15565
0.0706751
0.0589179
0.071149
0.0593557
0.139977
0.139963
0.140981
0.140967
0.053731
0.0537261
0.0541517
0.0541467
0.15456
0.187382
0.155607
0.188517
0.0589025
0.0706474
0.0593399
0.0711208
0.246183
0.272206
0.247458
0.273655
0.0903344
0.104569
0.0908758
0.105152
0.269285
0.243603
0.270812
0.244951
0.103397
0.0892366
0.104012
0.0898088
0.18508
0.152412
0.186282
0.153522
0.0696791
0.057996
0.0701804
0.0584598
0.137876
0.137862
0.138941
0.138927
0.0528438
0.0528391
0.0532897
0.0532849
0.152372
0.185012
0.153481
0.186212
0.0579812
0.0696524
0.0584446
0.0701532
0.243513
0.269181
0.244859
0.270706
0.0891971
0.103347
0.0897686
0.103961
0.26609
0.240771
0.267703
0.242202
0.102103
0.0880302
0.102755
0.0886378
0.182557
0.150078
0.183837
0.151264
0.0686208
0.057015
0.0691548
0.0575098
0.135634
0.135621
0.136773
0.136759
0.0518992
0.0518948
0.0523754
0.0523708
0.150039
0.182491
0.151224
0.18377
0.0570008
0.0685952
0.0574953
0.0691286
0.240684
0.265989
0.242114
0.267601
0.0879922
0.102056
0.0885991
0.102706
0.262696
0.237747
0.264413
0.239279
0.100726
0.0867428
0.101422
0.087393
0.179851
0.147567
0.181227
0.148846
0.0674867
0.0559615
0.0680607
0.0564947
0.133218
0.133206
0.134449
0.134436
0.0508841
0.0508798
0.0513976
0.0513932
0.14753
0.179788
0.148808
0.181163
0.055948
0.0674622
0.0564808
0.0680357
0.237663
0.262599
0.239194
0.264314
0.0867064
0.10068
0.0873559
0.101375
0.259058
0.234483
0.260904
0.236142
0.0992454
0.0853553
0.0999964
0.0860585
0.176915
0.144833
0.178413
0.14623
0.0662576
0.0548167
0.0668821
0.0553984
0.130584
0.130572
0.131931
0.131919
0.0497798
0.0497758
0.0503407
0.0503366
0.144798
0.176855
0.146194
0.178352
0.0548039
0.0662344
0.0553852
0.0668582
0.234403
0.258966
0.23606
0.26081
0.0853208
0.0992016
0.0860231
0.0999513
0.255114
0.230918
0.257123
0.232737
0.0976315
0.0838417
0.0984532
0.084612
0.173688
0.141816
0.17534
0.143363
0.0649078
0.0535554
0.0655964
0.0541991
0.12767
0.127659
0.129165
0.129154
0.0485615
0.0485578
0.0491831
0.0491792
0.141782
0.173631
0.143328
0.175282
0.0535435
0.064886
0.0541867
0.065574
0.230843
0.255027
0.232659
0.257033
0.0838091
0.0975901
0.0845784
0.0984104
0.25078
0.226972
0.252996
0.228992
0.0958463
0.0821667
0.0967593
0.0830224
0.17009
0.138434
0.171939
0.140175
0.0634036
0.0521447
0.0641743
0.0528679
0.124396
0.124386
0.126082
0.126072
0.0471967
0.0471933
0.0478963
0.0478928
0.138402
0.170037
0.140142
0.171884
0.0521338
0.0633835
0.0528565
0.0641533
0.226901
0.250699
0.228919
0.252911
0.0821363
0.0958076
0.0829909
0.096719
0.245954
0.222541
0.248429
0.224818
0.0938416
0.0802942
0.094871
0.0812537
0.166013
0.134578
0.168118
0.136572
0.061702
0.0505409
0.0625779
0.0513672
0.120653
0.120644
0.12259
0.12258
0.0456424
0.0456394
0.0464431
0.04644
0.134549
0.165965
0.136542
0.168067
0.0505312
0.0616838
0.0513569
0.0625587
0.222476
0.245878
0.22475
0.24835
0.0802665
0.093806
0.0812246
0.0948336
0.240554
0.217487
0.24332
0.220098
0.091572
0.0781816
0.0927378
0.0792673
0.161282
0.130078
0.163745
0.132422
0.059736
0.0486802
0.0607552
0.0496449
0.116288
0.11628
0.118559
0.11855
0.0438415
0.043839
0.0447738
0.044771
0.130053
0.161239
0.132395
0.163699
0.0486719
0.0597201
0.0496359
0.0607382
0.217428
0.240486
0.220036
0.243248
0.0781569
0.09154
0.079241
0.0927038
0.234843
0.211374
0.237669
0.214622
0.089104
0.0757331
0.0903408
0.0770113
0.155422
0.124622
0.158549
0.127496
0.0573517
0.0464609
0.0586111
0.0476206
0.111101
0.111094
0.113808
0.1138
0.0417311
0.0417292
0.0428249
0.0428227
0.124601
0.155385
0.127472
0.158508
0.0464542
0.0573385
0.0476131
0.0585965
0.211323
0.234783
0.214567
0.237605
0.075712
0.0890762
0.0769882
0.0903107
0.232037
0.200554
0.232593
0.207272
0.0867922
0.0716398
0.0879542
0.074147
0.146849
0.117797
0.151645
0.121388
0.0540608
0.0437833
0.0558688
0.045175
0.105028
0.105023
0.108158
0.108152
0.0393266
0.0393252
0.0405531
0.0405515
0.11778
0.146818
0.121369
0.151612
0.0437783
0.0540505
0.0451692
0.0558571
0.200513
0.231987
0.207226
0.232537
0.0716229
0.0867694
0.0741278
0.0879288
0.156567
0.130714
0.092039
0.0769977
0.135045
0.112246
0.0755695
0.0634624
0.0715573
0.0355626
0.0320058
0.00965135
0.0578451
0.0256962
0.0236417
0.00681805
0.0167847
0.0167943
0.00432712
0.0043292
0.010352
0.0103599
0.00342332
0.00342512
0.0355802
0.0715688
0.00966017
0.0320207
0.0257125
0.0578563
0.00682401
0.0236553
0.130721
0.15657
0.0770102
0.0920462
0.112254
0.135049
0.0634748
0.0755773
0.241065
0.206869
0.203897
0.172645
0.209782
0.178809
0.177377
0.149258
0.136776
0.0931991
0.106267
0.0648471
0.113405
0.0735994
0.0875856
0.0498821
0.0722905
0.0722924
0.0442541
0.0442607
0.0545968
0.0545997
0.030805
0.0308122
0.0932008
0.136772
0.0648566
0.106271
0.0736036
0.113405
0.0498927
0.0875919
0.206858
0.241049
0.172644
0.203892
0.178803
0.209771
0.14926
0.177374
0.298904
0.261753
0.272114
0.236137
0.259152
0.225397
0.236397
0.203739
0.18815
0.142849
0.163892
0.119247
0.156542
0.115233
0.136208
0.0954463
0.121577
0.121573
0.0981474
0.0981463
0.0961508
0.0961489
0.0764297
0.07643
0.142836
0.188126
0.119241
0.163878
0.115225
0.156526
0.0954445
0.1362
0.261719
0.298864
0.236115
0.272086
0.225371
0.25912
0.203723
0.236376
0.34299
0.304428
0.322325
0.28436
0.29639
0.261315
0.278953
0.244439
0.22925
0.183112
0.209845
0.164076
0.190911
0.148901
0.174694
0.132998
0.161511
0.161502
0.142637
0.14263
0.129604
0.129598
0.113817
0.113813
0.183085
0.229205
0.164057
0.209811
0.148882
0.190877
0.132985
0.174669
0.304369
0.342923
0.284314
0.32227
0.261268
0.296335
0.244403
0.278909
0.377232
0.337872
0.361192
0.322181
0.325255
0.289405
0.311736
0.276229
0.261837
0.215153
0.246519
0.200083
0.218112
0.175607
0.20533
0.163055
0.193271
0.193258
0.178333
0.178322
0.156076
0.156066
0.143638
0.14363
0.215113
0.261772
0.200049
0.246464
0.175577
0.21806
0.16303
0.205287
0.337789
0.377138
0.322109
0.361111
0.289337
0.325176
0.276171
0.311669
0.403491
0.363655
0.391253
0.351627
0.347368
0.311034
0.337066
0.300947
0.287132
0.240085
0.275319
0.228435
0.239192
0.196334
0.229351
0.186655
0.217992
0.217975
0.206439
0.206424
0.17661
0.176597
0.167021
0.167009
0.240034
0.28705
0.22839
0.275246
0.196294
0.239125
0.18662
0.229292
0.36355
0.403374
0.351533
0.391147
0.310947
0.347268
0.300869
0.336976
0.423129
0.383012
0.414046
0.374052
0.363878
0.327242
0.356245
0.319743
0.306225
0.25895
0.297382
0.250208
0.255068
0.211973
0.247719
0.204731
0.236714
0.236693
0.228036
0.228017
0.192111
0.192094
0.184931
0.184916
0.258889
0.306127
0.250152
0.297292
0.211924
0.254987
0.204686
0.247644
0.382888
0.422992
0.373937
0.413918
0.327137
0.363759
0.319646
0.356134
0.437345
0.397072
0.430833
0.390627
0.375797
0.338981
0.37034
0.333604
0.320162
0.272756
0.313771
0.266421
0.266618
0.223377
0.261326
0.218149
0.250431
0.250407
0.244135
0.244113
0.203424
0.203405
0.198236
0.198218
0.272686
0.32005
0.266355
0.313666
0.22332
0.266525
0.218095
0.261238
0.396932
0.437191
0.390495
0.430686
0.338862
0.375662
0.333491
0.370212
0.447199
0.406856
0.442742
0.402426
0.384025
0.347116
0.380306
0.343436
0.329917
0.282452
0.325499
0.278058
0.274665
0.231346
0.271025
0.227739
0.260079
0.260053
0.255705
0.25568
0.211341
0.21132
0.207756
0.207736
0.282375
0.329794
0.277984
0.325382
0.231282
0.274563
0.227678
0.270927
0.406703
0.447031
0.402279
0.442579
0.346984
0.383877
0.34331
0.380163
0.45365
0.413298
0.450785
0.410432
0.38938
0.352439
0.387005
0.350074
0.336392
0.288919
0.333509
0.286037
0.279972
0.236624
0.277613
0.234275
0.266529
0.2665
0.263652
0.263625
0.216597
0.216574
0.214256
0.214234
0.288836
0.336261
0.285956
0.333382
0.236556
0.279861
0.234209
0.277506
0.413135
0.453471
0.410273
0.450609
0.352298
0.389222
0.349937
0.38685
0.457514
0.417197
0.455848
0.41551
0.392557
0.355632
0.39119
0.354253
0.34037
0.292926
0.338645
0.291185
0.2832
0.239863
0.281803
0.238459
0.270541
0.270512
0.268795
0.268766
0.219835
0.21981
0.218429
0.218405
0.292839
0.340233
0.2911
0.338511
0.239791
0.283084
0.238389
0.28169
0.417027
0.457327
0.415342
0.455663
0.355484
0.392391
0.354108
0.391026
0.459469
0.419224
0.458683
0.4184
0.394135
0.357262
0.393504
0.356603
0.342508
0.295122
0.341631
0.294215
0.284905
0.241607
0.284209
0.24089
0.272759
0.272729
0.271839
0.271809
0.221594
0.221569
0.220867
0.220843
0.295033
0.342367
0.294127
0.341492
0.241533
0.284785
0.240817
0.284091
0.419048
0.459277
0.418227
0.458492
0.35711
0.393964
0.356452
0.393335
0.460045
0.4199
0.459889
0.419693
0.394559
0.35777
0.394456
0.357623
0.343325
0.296021
0.343052
0.295706
0.285521
0.242288
0.285322
0.242055
0.273694
0.273663
0.273359
0.273329
0.222304
0.222279
0.222055
0.22203
0.29593
0.343182
0.295615
0.34291
0.242212
0.2854
0.24198
0.285201
0.419722
0.45985
0.419516
0.459694
0.357615
0.394386
0.357469
0.394282
0.459679
0.419657
0.459951
0.419864
0.394207
0.357524
0.394457
0.357717
0.34324
0.296028
0.343371
0.296113
0.285403
0.242246
0.285532
0.242335
0.273744
0.273713
0.273807
0.273776
0.222298
0.222272
0.222369
0.222343
0.295936
0.343095
0.296021
0.343227
0.24217
0.285281
0.242259
0.285409
0.419478
0.459483
0.419685
0.459754
0.357368
0.394032
0.357562
0.394282
0.458623
0.418747
0.45921
0.419261
0.393279
0.356726
0.39379
0.357171
0.34251
0.295412
0.34294
0.295786
0.284756
0.241694
0.28513
0.242021
0.273182
0.273151
0.27353
0.273498
0.221792
0.221767
0.222096
0.22207
0.29532
0.342365
0.295694
0.342795
0.241618
0.284634
0.241944
0.285007
0.418567
0.458427
0.419081
0.459013
0.35657
0.393105
0.357015
0.393614
0.457092
0.417382
0.457897
0.418103
0.391961
0.355558
0.392651
0.356172
0.341342
0.294367
0.34197
0.294934
0.283756
0.2408
0.28429
0.24128
0.272197
0.272166
0.272733
0.272702
0.220948
0.220923
0.221403
0.221377
0.294275
0.341198
0.294842
0.341826
0.240723
0.283634
0.241204
0.284168
0.417204
0.456897
0.417924
0.4577
0.355402
0.391787
0.356016
0.392475
0.455214
0.41569
0.456181
0.416563
0.390354
0.35412
0.391178
0.354859
0.339863
0.293023
0.340635
0.293727
0.282504
0.239663
0.283154
0.240255
0.270917
0.270886
0.271589
0.271558
0.219868
0.219842
0.220432
0.220406
0.292932
0.33972
0.293636
0.340492
0.239587
0.282383
0.24018
0.283033
0.415513
0.455021
0.416385
0.455985
0.353966
0.390181
0.354704
0.391004
0.453062
0.413745
0.454159
0.414738
0.388518
0.352473
0.389451
0.353311
0.338147
0.291452
0.339031
0.292263
0.281058
0.238343
0.2818
0.239022
0.269417
0.269387
0.270192
0.270162
0.218609
0.218584
0.219257
0.219231
0.291362
0.338006
0.292173
0.338889
0.238268
0.280938
0.238947
0.28168
0.41357
0.452871
0.414562
0.453965
0.352321
0.388347
0.353158
0.389279
0.450678
0.411589
0.451887
0.412683
0.386485
0.35065
0.387514
0.351573
0.336237
0.289698
0.337214
0.290597
0.279451
0.236872
0.280271
0.237623
0.267739
0.267708
0.268599
0.268569
0.217203
0.217179
0.217922
0.217897
0.289609
0.336098
0.290507
0.337074
0.236798
0.279333
0.237549
0.280152
0.411416
0.45049
0.412509
0.451696
0.3505
0.386317
0.351422
0.387344
0.448086
0.409245
0.449398
0.410431
0.384275
0.348669
0.385392
0.34967
0.334156
0.287782
0.335217
0.28876
0.277702
0.235268
0.278592
0.236085
0.265904
0.265874
0.266841
0.266811
0.215669
0.215645
0.216451
0.216426
0.287695
0.334018
0.288672
0.335078
0.235195
0.277586
0.236012
0.278474
0.409075
0.447901
0.41026
0.449209
0.348521
0.38411
0.349521
0.385224
0.445294
0.406724
0.446705
0.407998
0.381892
0.346536
0.383095
0.347612
0.331913
0.285717
0.333054
0.286769
0.275817
0.233537
0.276774
0.234417
0.263924
0.263895
0.264933
0.264903
0.214013
0.213989
0.214855
0.214831
0.28563
0.331778
0.286682
0.332918
0.233466
0.275703
0.234345
0.276659
0.406556
0.445112
0.407829
0.44652
0.346391
0.38173
0.347466
0.38293
0.442306
0.404028
0.443815
0.405389
0.37934
0.344256
0.380627
0.345406
0.329514
0.283505
0.330733
0.28463
0.2738
0.231684
0.274823
0.232625
0.261804
0.261775
0.262882
0.262853
0.21224
0.212216
0.21314
0.213116
0.28342
0.329381
0.284544
0.330599
0.231614
0.273687
0.232554
0.274709
0.403864
0.442127
0.405224
0.443633
0.344113
0.379181
0.345261
0.380465
0.439123
0.40116
0.440729
0.402608
0.376619
0.341828
0.377991
0.343051
0.326959
0.281148
0.328256
0.282346
0.271651
0.229709
0.27274
0.230711
0.259543
0.259515
0.260692
0.260663
0.210348
0.210325
0.211308
0.211284
0.281065
0.326828
0.282262
0.328124
0.22964
0.271541
0.230642
0.272628
0.400999
0.438947
0.402445
0.440551
0.341688
0.376463
0.34291
0.377832
0.435745
0.39812
0.437449
0.399654
0.37373
0.339253
0.375186
0.34055
0.324249
0.278647
0.325623
0.279917
0.269371
0.227612
0.270525
0.228675
0.257143
0.257115
0.258362
0.258334
0.20834
0.208317
0.209358
0.209335
0.278565
0.324121
0.279834
0.325494
0.227545
0.269262
0.228607
0.270416
0.397962
0.435573
0.399494
0.437274
0.339115
0.373577
0.340411
0.37503
0.432172
0.394906
0.433974
0.396527
0.370673
0.336529
0.372213
0.337901
0.321382
0.275999
0.322835
0.277343
0.266958
0.225393
0.268179
0.226517
0.254602
0.254575
0.255892
0.255864
0.206213
0.206191
0.20729
0.207268
0.275919
0.321257
0.277262
0.322708
0.225327
0.266852
0.22645
0.268072
0.394751
0.432005
0.39637
0.433802
0.336395
0.370523
0.337765
0.37206
0.428406
0.391517
0.430304
0.393225
0.367448
0.333659
0.369072
0.335104
0.318357
0.273204
0.319889
0.274621
0.264413
0.22305
0.2657
0.224236
0.251918
0.251891
0.253279
0.253253
0.203968
0.203946
0.205105
0.205083
0.273125
0.318234
0.274542
0.319765
0.222985
0.264309
0.224171
0.265596
0.391366
0.428242
0.393072
0.430137
0.333528
0.367302
0.334971
0.368923
0.424442
0.38795
0.42644
0.389748
0.364056
0.330639
0.365764
0.332159
0.315168
0.270254
0.316783
0.27175
0.261732
0.22058
0.263088
0.22183
0.249085
0.249059
0.250522
0.250495
0.2016
0.201579
0.202799
0.202777
0.270178
0.315048
0.271673
0.316662
0.220517
0.261631
0.221767
0.262986
0.387802
0.424282
0.389599
0.426276
0.330511
0.363914
0.33203
0.365619
0.420278
0.384196
0.422376
0.386088
0.360493
0.327466
0.362287
0.329064
0.311808
0.267142
0.31351
0.268721
0.258911
0.217978
0.260338
0.219296
0.246094
0.246068
0.247611
0.247586
0.199103
0.199083
0.200368
0.200347
0.267068
0.311691
0.268645
0.313392
0.217917
0.258812
0.219234
0.260238
0.384052
0.420122
0.385943
0.422217
0.327342
0.360355
0.328938
0.362146
0.415902
0.380249
0.418109
0.38224
0.356751
0.324126
0.358636
0.32581
0.308262
0.263851
0.31006
0.265522
0.255936
0.21523
0.257442
0.216623
0.242927
0.242903
0.244535
0.24451
0.196465
0.196445
0.197802
0.197782
0.263779
0.308149
0.265449
0.309945
0.215171
0.25584
0.216562
0.257345
0.38011
0.415751
0.382099
0.417954
0.324005
0.356617
0.325687
0.358498
0.411288
0.376079
0.413617
0.378187
0.352815
0.3206
0.3548
0.322379
0.304502
0.260353
0.306411
0.262132
0.252786
0.212315
0.254383
0.213795
0.239557
0.239533
0.241271
0.241247
0.193664
0.193645
0.195086
0.195066
0.260283
0.304392
0.262061
0.3063
0.212258
0.252694
0.213736
0.254289
0.375944
0.411142
0.37805
0.413468
0.320483
0.352685
0.32226
0.354667
0.406402
0.371643
0.408873
0.37389
0.348654
0.316859
0.350756
0.31875
0.300486
0.256606
0.302529
0.258515
0.249431
0.209201
0.251135
0.210785
0.235942
0.235919
0.237785
0.237761
0.190667
0.190648
0.192192
0.192173
0.256539
0.30038
0.258446
0.302421
0.209145
0.249342
0.210728
0.251045
0.371513
0.406261
0.373757
0.408728
0.316746
0.348529
0.318635
0.350627
0.401192
0.366888
0.403832
0.369302
0.344227
0.312857
0.346468
0.314886
0.296158
0.252553
0.298365
0.254623
0.245823
0.20584
0.24766
0.207554
0.232024
0.232001
0.234026
0.234004
0.187426
0.187409
0.18908
0.189061
0.252487
0.296056
0.254557
0.298261
0.205787
0.245737
0.2075
0.247573
0.366763
0.401057
0.369174
0.403693
0.312749
0.344107
0.314775
0.346344
0.395589
0.361741
0.398436
0.364361
0.339475
0.308534
0.341887
0.310732
0.291441
0.248115
0.293854
0.250389
0.241899
0.20217
0.243904
0.204048
0.227724
0.227703
0.229928
0.229907
0.18388
0.183863
0.185696
0.185678
0.248053
0.291343
0.250325
0.293754
0.202119
0.241817
0.203996
0.24382
0.361621
0.39546
0.364239
0.398303
0.30843
0.33936
0.310626
0.341769
0.389501
0.356105
0.392603
0.358983
0.334317
0.303807
0.336944
0.306219
0.286236
0.243192
0.288907
0.245722
0.237577
0.198106
0.239793
0.200193
0.222941
0.222921
0.225401
0.225381
0.179944
0.179928
0.181966
0.18195
0.243132
0.286144
0.245662
0.288812
0.198058
0.2375
0.200143
0.239713
0.355992
0.389378
0.358867
0.392476
0.303709
0.334208
0.306118
0.336831
0.382815
0.349862
0.386231
0.35306
0.328654
0.298569
0.331547
0.301251
0.280417
0.237651
0.283412
0.240509
0.232748
0.193538
0.235232
0.195892
0.217541
0.217523
0.220329
0.220309
0.175506
0.175491
0.177795
0.177779
0.237595
0.28033
0.240451
0.283323
0.193493
0.232675
0.195846
0.235157
0.349755
0.3827
0.35295
0.386111
0.298477
0.328551
0.301156
0.33144
0.37542
0.342873
0.379203
0.346462
0.322374
0.292696
0.325589
0.295713
0.273816
0.231315
0.277226
0.234596
0.227267
0.188316
0.230099
0.19102
0.211346
0.211329
0.214557
0.214539
0.170418
0.170404
0.173054
0.17304
0.231264
0.273735
0.234543
0.277142
0.188275
0.227201
0.190976
0.230029
0.342774
0.375314
0.346359
0.379091
0.292611
0.32228
0.295624
0.325489
0.367311
0.334969
0.371435
0.339041
0.315427
0.286014
0.318971
0.289464
0.266171
0.223916
0.270148
0.227771
0.2209
0.182209
0.224216
0.185392
0.204106
0.204091
0.207876
0.207859
0.16447
0.164458
0.167566
0.167553
0.22387
0.266098
0.227722
0.270071
0.182172
0.22084
0.185353
0.224152
0.334879
0.367214
0.338947
0.371332
0.285937
0.315342
0.289383
0.31888
0.359221
0.32565
0.36312
0.330554
0.308283
0.277996
0.311775
0.282242
0.256827
0.21499
0.261787
0.219683
0.213045
0.174815
0.217227
0.178706
0.195504
0.19549
0.199994
0.19998
0.157397
0.157386
0.161089
0.161077
0.21495
0.256763
0.21964
0.261719
0.174783
0.212993
0.178672
0.217171
0.325571
0.359135
0.33047
0.363028
0.277929
0.308208
0.28217
0.311694
0.357208
0.310346
0.356553
0.319681
0.305665
0.264372
0.305682
0.272729
0.243732
0.203963
0.250966
0.20975
0.201844
0.16564
0.208056
0.170456
0.185409
0.185397
0.190623
0.190611
0.14911
0.149101
0.153385
0.153375
0.20393
0.243678
0.209713
0.250908
0.165614
0.2018
0.170427
0.208008
0.31028
0.357134
0.319608
0.356473
0.264316
0.3056
0.272668
0.305612
0.182285
0.1534
0.112329
0.0941777
0.171493
0.143793
0.103797
0.0867967
0.0894949
0.0495155
0.0434081
0.0152476
0.081776
0.0434177
0.0384158
0.012378
0.0283408
0.0283517
0.00607299
0.00607815
0.0228397
0.0228506
0.00513242
0.00513568
0.0495307
0.0895046
0.0152682
0.0434241
0.0434337
0.0817869
0.0123931
0.0384315
0.153403
0.182283
0.094189
0.112334
0.143798
0.171493
0.0868089
0.103803
0.279121
0.241971
0.235666
0.201445
0.262974
0.226954
0.222274
0.189203
0.167812
0.121104
0.130767
0.0861357
0.154339
0.108775
0.12019
0.0767706
0.0986863
0.0986861
0.0643098
0.0643137
0.0868979
0.0868988
0.0554511
0.0554559
0.1211
0.167799
0.0861415
0.130767
0.108774
0.154331
0.0767784
0.120192
0.241949
0.279093
0.201437
0.235652
0.226938
0.262952
0.189199
0.222264
0.34907
0.308911
0.316386
0.277428
0.327495
0.288473
0.29747
0.259644
0.231408
0.182838