/*--------------------------------*- C++ -*----------------------------------*\
  =========                 |
  \\      /  F ield         | OpenFOAM: The Open Source CFD Toolbox
   \\    /   O peration     | Website:  https://openfoam.org
    \\  /    A nd           | Version:  9
     \\/     M anipulation  |
\*---------------------------------------------------------------------------*/
FoamFile
{
    format      ascii;
    class       surfaceScalarField;
    location    "3.1";
    object      phi;
}
// * * * * * * * * * * * * * * * * * * * * * * * * * * * * * * * * * * * * * //

dimensions      [0 3 -1 0 0 0 0];

internalField   nonuniform List<scalar> 
104044
(
5.66849e-07
-6.69937e-05
-1.94161e-06
6.56857e-05
2.68275e-06
-4.5233e-05
-1.70131e-06
-2.15582e-07
4.75221e-05
1.94602e-07
3.44742e-07
-3.42651e-06
3.54778e-06
-8.88989e-07
-1.37161e-07
-3.5727e-07
-3.39478e-08
-7.59542e-05
7.40466e-05
-3.79704e-05
3.40409e-08
3.62011e-05
4.65295e-09
-2.2182e-09
-1.1131e-08
-5.04674e-05
-2.83669e-06
5.08036e-05
2.29603e-06
-5.26716e-05
-1.4073e-06
-5.61122e-11
5.29622e-05
1.10559e-06
-6.29144e-09
-2.28611e-06
1.54453e-06
-1.36693e-06
-2.74979e-10
6.8659e-07
-6.07231e-09
-5.25002e-05
4.97036e-05
-5.59753e-05
-1.19696e-09
5.45631e-05
-1.15879e-08
-2.47119e-09
1.48619e-12
-5.35004e-05
-6.091e-07
5.39795e-05
1.30008e-07
-5.35011e-05
-6.09538e-07
5.86763e-11
5.398e-05
1.30558e-07
-5.3484e-13
-1.02527e-06
1.91572e-07
-1.02539e-06
2.79262e-10
1.91695e-07
4.69305e-12
-5.5645e-05
5.50347e-05
-5.5646e-05
1.20025e-09
5.50352e-05
2.81309e-12
2.47362e-09
1.11428e-08
-5.26732e-05
-1.40776e-06
5.29637e-05
1.10617e-06
-5.04697e-05
-2.83633e-06
2.15639e-07
5.08056e-05
2.29602e-06
6.29419e-09
-1.36735e-06
6.87073e-07
-2.28602e-06
1.37213e-07
1.54462e-06
6.08473e-09
-5.59768e-05
5.45641e-05
-5.25015e-05
-3.40391e-08
4.97053e-05
1.15897e-08
2.20319e-09
-5.66945e-07
-4.52344e-05
-1.70048e-06
4.7523e-05
1.94465e-07
-6.69901e-05
-1.9419e-06
6.56821e-05
2.68298e-06
-3.44818e-07
-8.87684e-07
-3.57747e-07
-3.42693e-06
3.54794e-06
3.38808e-08
-3.79718e-05
3.62034e-05
-7.59488e-05
7.40408e-05
-4.65943e-09
3.61662e-07
-6.42467e-05
-2.3987e-06
6.29583e-05
3.32543e-06
-4.89079e-05
1.6371e-06
-9.82103e-08
4.97645e-05
-2.03379e-06
4.74687e-07
-2.15361e-06
3.11788e-06
1.53304e-07
-1.60615e-07
-9.03745e-07
-4.58176e-07
-7.2122e-05
7.01815e-05
-3.59786e-05
2.68157e-07
3.68894e-05
-2.29018e-07
1.46804e-07
-1.31489e-08
-5.10353e-05
-1.82864e-06
5.10087e-05
1.77016e-06
-5.30855e-05
-1.3935e-06
-2.90905e-09
5.2989e-05
1.47975e-06
-1.24342e-08
-2.57805e-06
2.19816e-06
-1.60796e-06
-2.87736e-10
1.47253e-06
2.05072e-11
-4.72768e-05
4.57163e-05
-5.29518e-05
-4.72405e-09
5.1563e-05
-4.49527e-09
-1.1484e-09
5.04435e-12
-5.40796e-05
-9.3204e-07
5.39553e-05
1.05336e-06
-5.408e-05
-9.32058e-07
2.91976e-09
5.39558e-05
1.05341e-06
2.30034e-12
-8.10978e-07
7.10564e-07
-8.11206e-07
2.93087e-10
7.10891e-07
3.79163e-12
-5.42226e-05
5.32858e-05
-5.42229e-05
4.74134e-09
5.32861e-05
2.53583e-12
1.15434e-09
1.31732e-08
-5.30868e-05
-1.39328e-06
5.29902e-05
1.47969e-06
-5.10369e-05
-1.82835e-06
9.82355e-08
5.10101e-05
1.77011e-06
1.24542e-08
-1.60801e-06
1.4727e-06
-2.57758e-06
1.6065e-07
2.19805e-06
2.38212e-12
-5.29527e-05
5.15642e-05
-4.72791e-05
-2.68157e-07
4.57189e-05
4.51347e-09
-1.46807e-07
-3.61775e-07
-4.89085e-05
1.63697e-06
4.97649e-05
-2.03336e-06
-6.42432e-05
-2.3988e-06
6.29549e-05
3.32534e-06
-4.74782e-07
1.53543e-07
-9.03605e-07
-2.1538e-06
3.11794e-06
4.57997e-07
-3.59812e-05
3.6892e-05
-7.21159e-05
7.01751e-05
2.28906e-07
1.00815e-07
-6.18493e-05
-2.64146e-06
6.08865e-05
3.50343e-06
-5.03634e-05
2.93512e-06
1.57796e-08
5.08542e-05
-3.34082e-06
2.28936e-07
-2.51477e-06
3.39485e-06
2.45715e-06
-3.63995e-08
-2.79078e-06
-9.1126e-07
-6.83501e-05
6.66199e-05
-3.82861e-05
4.7675e-07
3.98332e-05
-6.83357e-07
3.77068e-07
1.3655e-08
-5.09233e-05
-8.37948e-07
5.08713e-05
8.9209e-07
-5.27593e-05
-7.75683e-07
-6.62825e-09
5.25058e-05
1.04948e-06
-4.74128e-09
-1.22235e-06
1.27609e-06
-1.04611e-06
-7.91858e-09
1.279e-06
2.88632e-08
-4.48593e-05
4.44693e-05
-5.05338e-05
-5.27644e-09
4.97922e-05
1.17527e-08
-5.08811e-09
8.68878e-12
-5.37279e-05
-6.38531e-07
5.34541e-05
9.05703e-07
-5.37283e-05
-6.38472e-07
6.66716e-09
5.34544e-05
9.0565e-07
7.13652e-12
-8.31192e-07
1.05069e-06
-8.31114e-07
7.93924e-09
1.05065e-06
6.99947e-12
-5.24495e-05
5.18057e-05
-5.24499e-05
5.29651e-09
5.18061e-05
5.43583e-12
5.10393e-09
-1.36118e-08
-5.27603e-05
-7.75544e-07
5.25068e-05
1.04939e-06
-5.09245e-05
-8.37921e-07
-1.57641e-08
5.08724e-05
8.92193e-07
4.76868e-09
-1.04588e-06
1.27889e-06
-1.22222e-06
3.64192e-08
1.27611e-06
-2.88273e-08
-5.05351e-05
4.97937e-05
-4.4862e-05
-4.76724e-07
4.4472e-05
-1.17243e-08
-3.77055e-07
-1.00975e-07
-5.03637e-05
2.93458e-06
5.08544e-05
-3.34e-06
-6.18459e-05
-2.64119e-06
6.08832e-05
3.50293e-06
-2.2907e-07
2.45682e-06
-2.79016e-06
-2.51467e-06
3.39454e-06
9.10912e-07
-3.82887e-05
3.98356e-05
-6.83435e-05
6.66132e-05
6.83099e-07
-1.3363e-07
-6.00626e-05
-2.74638e-06
5.934e-05
3.60255e-06
-5.1263e-05
3.29316e-06
1.06135e-07
5.16215e-05
-3.89134e-06
-2.15293e-08
-2.67805e-06
3.52354e-06
3.13537e-06
7.39793e-08
-3.63975e-06
-1.29509e-06
-6.50443e-05
6.3593e-05
-4.13179e-05
6.12925e-07
4.27031e-05
-1.10247e-06
5.48176e-07
6.06104e-08
-5.08885e-05
-4.02664e-07
5.09594e-05
3.77273e-07
-5.22925e-05
-4.36576e-07
-1.1007e-09
5.2131e-05
6.59751e-07
3.49056e-08
-5.6511e-07
5.87008e-07
-5.71532e-07
-4.40053e-09
8.24132e-07
7.10118e-08
-4.44037e-05
4.45429e-05
-4.92731e-05
-7.73832e-10
4.89083e-05
4.86679e-08
-3.75002e-09
1.01425e-11
-5.31988e-05
-3.64408e-07
5.29781e-05
5.83961e-07
-5.31991e-05
-3.64384e-07
1.13152e-09
5.29785e-05
5.83935e-07
8.95823e-12
-4.70926e-07
7.21829e-07
-4.70888e-07
4.42574e-09
7.2179e-07
9.77408e-12
-5.1331e-05
5.09658e-05
-5.13315e-05
8.03898e-10
5.09663e-05
8.24091e-12
3.77457e-09
-6.05375e-08
-5.22934e-05
-4.36551e-07
5.21319e-05
6.59726e-07
-5.08895e-05
-4.02707e-07
-1.0615e-07
5.09604e-05
3.77479e-07
-3.48457e-08
-5.71467e-07
8.2408e-07
-5.65133e-07
-7.39725e-08
5.87168e-07
-7.09571e-08
-4.92747e-05
4.89099e-05
-4.44063e-05
-6.12876e-07
4.45456e-05
-4.86237e-08
-5.48138e-07
1.33418e-07
-5.12631e-05
3.29232e-06
5.16215e-05
-3.89022e-06
-6.00593e-05
-2.74579e-06
5.93369e-05
3.60166e-06
2.13464e-08
3.13469e-06
-3.63878e-06
-2.67759e-06
3.52281e-06
1.29456e-06
-4.13201e-05
4.2705e-05
-6.50377e-05
6.35864e-05
1.10203e-06
-3.22141e-07
-5.87132e-05
-2.77646e-06
5.81568e-05
3.65495e-06
-5.19314e-05
3.38075e-06
1.30253e-07
5.22011e-05
-4.10288e-06
-2.31486e-07
-2.73788e-06
3.59624e-06
3.31999e-06
1.22083e-07
-3.98351e-06
-1.5924e-06
-6.2295e-05
6.11109e-05
-4.39258e-05
7.02962e-07
4.50112e-05
-1.43987e-06
6.57346e-07
1.14469e-07
-5.1067e-05
-2.47124e-07
5.11971e-05
1.32792e-07
-5.20221e-05
-2.60688e-07
9.15049e-09
5.19543e-05
4.33827e-07
8.69923e-08
-3.00226e-07
2.27748e-07
-3.31541e-07
3.52772e-09
5.23922e-07
1.1437e-07
-4.48079e-05
4.51493e-05
-4.86655e-05
8.72734e-09
4.85104e-05
9.21667e-08
3.4806e-09
1.60723e-11
-5.27994e-05
-2.46297e-07
5.26547e-05
4.00088e-07
-5.27997e-05
-2.46285e-07
-9.10374e-09
5.2655e-05
4.00076e-07
1.18814e-11
-2.89888e-07
4.72164e-07
-2.89873e-07
-3.49111e-09
4.72148e-07
1.89401e-11
-5.06794e-05
5.04418e-05
-5.06799e-05
-8.67974e-09
5.04423e-05
1.18663e-11
-3.44463e-09
-1.14375e-07
-5.2023e-05
-2.60695e-07
5.19551e-05
4.3383e-07
-5.10678e-05
-2.47181e-07
-1.30305e-07
5.11979e-05
1.33054e-07
-8.691e-08
-3.31532e-07
5.23911e-07
-3.00263e-07
-1.22115e-07
2.27974e-07
-1.14304e-07
-4.8667e-05
4.85119e-05
-4.48104e-05
-7.02812e-07
4.51517e-05
-9.21018e-08
-6.57216e-07
3.21876e-07
-5.19313e-05
3.37967e-06
5.2201e-05
-4.10152e-06
-5.87101e-05
-2.77561e-06
5.81539e-05
3.65372e-06
2.31249e-07
3.31904e-06
-3.98228e-06
-2.73711e-06
3.59515e-06
1.59169e-06
-4.39276e-05
4.50128e-05
-6.22886e-05
6.11047e-05
1.43925e-06
-4.65794e-07
-5.76664e-05
-2.77518e-06
5.72241e-05
3.68325e-06
-5.24293e-05
3.37017e-06
1.38044e-07
5.26198e-05
-4.16449e-06
-3.95135e-07
-2.748e-06
3.63356e-06
3.34766e-06
1.32789e-07
-4.10373e-06
-1.81171e-06
-6.00566e-05
5.90931e-05
-4.5941e-05
7.51726e-07
4.67477e-05
-1.69367e-06
7.2424e-07
1.61792e-07
-5.13371e-05
-2.11706e-07
5.14828e-05
4.2212e-08
-5.19188e-05
-1.65212e-07
2.11338e-08
5.19058e-05
3.18859e-07
1.37942e-07
-2.18205e-07
7.30723e-08
-2.03688e-07
1.51761e-08
3.61967e-07
1.40867e-07
-4.55272e-05
4.59263e-05
-4.84205e-05
2.06161e-08
4.83755e-05
1.28181e-07
1.44036e-08
-1.09715e-10
-5.25407e-05
-1.93855e-07
5.24487e-05
3.07097e-07
-5.25409e-05
-1.93815e-07
-2.15076e-08
5.2449e-05
3.07142e-07
2.07299e-11
-2.13264e-07
3.42432e-07
-2.1325e-07
-1.50903e-08
3.42428e-07
1.22299e-11
-5.02429e-05
5.00697e-05
-5.02433e-05
-2.05508e-08
5.00701e-05
3.94599e-11
-1.42796e-08
-1.61785e-07
-5.19196e-05
-1.65333e-07
5.19064e-05
3.188e-07
-5.13378e-05
-2.11776e-07
-1.38112e-07
5.14834e-05
4.25014e-08
-1.37851e-07
-2.03691e-07
3.61968e-07
-2.18298e-07
-1.32805e-07
7.33458e-08
-1.40939e-07
-4.84219e-05
4.8377e-05
-4.55295e-05
-7.51602e-07
4.59284e-05
-1.27977e-07
-7.24025e-07
4.65466e-07
-5.24291e-05
3.36893e-06
5.26195e-05
-4.16293e-06
-5.76636e-05
-2.77411e-06
5.72214e-05
3.68175e-06
3.94849e-07
3.34652e-06
-4.10228e-06
-2.747e-06
3.63217e-06
1.81082e-06
-4.59424e-05
4.67489e-05
-6.00506e-05
5.90873e-05
1.6929e-06
-5.72128e-07
-5.68271e-05
-2.75744e-06
5.64629e-05
3.69377e-06
-5.27752e-05
3.31553e-06
1.36852e-07
5.28988e-05
-4.14818e-06
-5.1764e-07
-2.73677e-06
3.65143e-06
3.30949e-06
1.37214e-07
-4.11974e-06
-1.96591e-06
-5.82327e-05
5.74412e-05
-4.74239e-05
7.72168e-07
4.80013e-05
-1.87634e-06
7.56998e-07
1.97909e-07
-5.16231e-05
-2.3251e-07
5.17542e-05
4.03167e-08
-5.19083e-05
-1.15924e-07
3.03804e-08
5.19203e-05
2.71487e-07
1.79496e-07
-2.15309e-07
3.27783e-08
-1.34887e-07
2.57622e-08
2.86077e-07
1.58596e-07
-4.63184e-05
4.66995e-05
-4.83637e-05
3.03563e-08
4.8376e-05
1.49608e-07
2.66021e-08
6.59728e-12
-5.23747e-05
-1.65987e-07
5.23125e-05
2.58478e-07
-5.23749e-05
-1.66216e-07
-3.01693e-08
5.23128e-05
2.58507e-07
1.02059e-10
-1.76492e-07
2.76203e-07
-1.76513e-07
-2.54553e-08
2.76199e-07
-5.64131e-10
-4.99198e-05
4.97847e-05
-4.992e-05
-3.242e-08
4.97856e-05
3.28015e-11
-2.63568e-08
-1.97636e-07
-5.1909e-05
-1.15949e-07
5.19209e-05
2.71509e-07
-5.16236e-05
-2.32292e-07
-1.36933e-07
5.17545e-05
4.06761e-08
-1.79302e-07
-1.34841e-07
2.86111e-07
-2.15391e-07
-1.37219e-07
3.31057e-08
-1.60472e-07
-4.83649e-05
4.8377e-05
-4.63206e-05
-7.72632e-07
4.67004e-05
-1.49161e-07
-7.56736e-07
5.71744e-07
-5.27749e-05
3.31424e-06
5.28985e-05
-4.14646e-06
-5.68245e-05
-2.75618e-06
5.64604e-05
3.69206e-06
5.17316e-07
3.30821e-06
-4.11812e-06
-2.73557e-06
3.64979e-06
1.96469e-06
-4.74249e-05
4.80019e-05
-5.82271e-05
5.74356e-05
1.87541e-06
-6.49869e-07
-5.61293e-05
-2.7306e-06
5.58181e-05
3.69161e-06
-5.29934e-05
3.2441e-06
1.29141e-07
5.30603e-05
-4.09009e-06
-6.08058e-07
-2.71553e-06
3.65718e-06
3.24705e-06
1.323e-07
-4.08193e-06
-2.07e-06
-5.67289e-05
5.60683e-05
-4.84761e-05
7.75651e-07
4.88746e-05
-2.0033e-06
7.68932e-07
2.22813e-07
-5.187e-05
-2.78311e-07
5.1971e-05
8.36188e-08
-5.19361e-05
-9.66981e-08
3.84994e-08
5.19524e-05
2.6476e-07
2.09359e-07
-2.51302e-07
5.84116e-08
-1.02315e-07
3.39135e-08
2.61933e-07
1.71524e-07
-4.70503e-05
4.73761e-05
-4.84033e-05
3.77574e-08
4.84404e-05
1.66825e-07
3.72011e-08
2.07585e-11
-5.22605e-05
-1.47257e-07
5.22139e-05
2.32281e-07
-5.22607e-05
-1.47579e-07
-3.81707e-08
5.22141e-05
2.3232e-07
1.13934e-11
-1.54578e-07
2.40565e-07
-1.54197e-07
-3.42911e-08
2.40606e-07
-8.75073e-10
-4.9666e-05
4.95574e-05
-4.96658e-05
-4.07531e-08
4.95581e-05
1.27984e-09
-3.31303e-08
-2.22552e-07
-5.19367e-05
-9.65514e-08
5.19528e-05
2.64759e-07
-5.18705e-05
-2.78018e-07
-1.2925e-07
5.19713e-05
8.3931e-08
-2.09445e-07
-1.02566e-07
2.61942e-07
-2.51904e-07
-1.32257e-07
5.87291e-08
-1.7377e-07
-4.84048e-05
4.84413e-05
-4.70526e-05
-7.76242e-07
4.73771e-05
-1.63437e-07
-7.67541e-07
6.49438e-07
-5.29931e-05
3.24271e-06
5.306e-05
-4.08824e-06
-5.6127e-05
-2.7292e-06
5.58159e-05
3.68972e-06
6.07749e-07
3.24543e-06
-4.08009e-06
-2.71426e-06
3.6554e-06
2.06861e-06
-4.84771e-05
4.8875e-05
-5.6724e-05
5.60634e-05
2.00262e-06
-7.05212e-07
-5.55278e-05
-2.69483e-06
5.52523e-05
3.67555e-06
-5.31043e-05
3.16456e-06
1.18668e-07
5.31247e-05
-4.00885e-06
-6.73138e-07
-2.68363e-06
3.64714e-06
3.1707e-06
1.22888e-07
-4.01069e-06
-2.13415e-06
-5.54698e-05
5.49092e-05
-4.91945e-05
7.68635e-07
4.94563e-05
-2.08513e-06
7.65687e-07
2.38525e-07
-5.20539e-05
-3.31667e-07
5.21195e-05
1.46258e-07
-5.19657e-05
-9.52828e-08
4.51612e-08
5.19741e-05
2.80298e-07
2.29294e-07
-3.02169e-07
1.12902e-07
-9.34422e-08
4.15049e-08
2.67885e-07
1.8086e-07
-4.76638e-05
4.79199e-05
-4.84803e-05
4.53961e-08
4.85205e-05
1.75839e-07
4.24543e-08
2.62264e-11
-5.21708e-05
-1.36097e-07
5.2128e-05
2.24025e-07
-5.2171e-05
-1.36118e-07
-4.50958e-08
5.21282e-05
2.24051e-07
4.11523e-11
-1.3949e-07
2.24032e-07
-1.39456e-07
-4.14629e-08
2.2406e-07
2.27327e-11
-4.94601e-05
4.93694e-05
-4.94605e-05
-4.53946e-08
4.93698e-05
2.26993e-10
-4.16085e-08
-2.38368e-07
-5.19661e-05
-9.53243e-08
5.19744e-05
2.80301e-07
-5.20541e-05
-3.31708e-07
-1.18722e-07
5.21196e-05
1.46573e-07
-2.29142e-07
-9.35034e-08
2.67888e-07
-3.02257e-07
-1.22925e-07
1.13205e-07
-1.80793e-07
-4.84813e-05
4.85214e-05
-4.7665e-05
-7.68408e-07
4.79209e-05
-1.75158e-07
-7.65324e-07
7.04793e-07
-5.31039e-05
3.16296e-06
5.31243e-05
-4.00687e-06
-5.55256e-05
-2.69338e-06
5.52502e-05
3.67356e-06
6.7274e-07
3.16916e-06
-4.00878e-06
-2.68216e-06
3.64517e-06
2.13293e-06
-4.91948e-05
4.94565e-05
-5.54652e-05
5.49048e-05
2.08399e-06
-7.43702e-07
-5.49901e-05
-2.65472e-06
5.47373e-05
3.65126e-06
-5.31255e-05
3.08003e-06
1.0748e-07
5.31048e-05
-3.91052e-06
-7.19403e-07
-2.64723e-06
3.62879e-06
3.09105e-06
1.12013e-07
-3.92321e-06
-2.16957e-06
-5.43965e-05
5.39114e-05
-4.96575e-05
7.55103e-07
4.98128e-05
-2.1346e-06
7.55232e-07
2.47465e-07
-5.21666e-05
-3.83497e-07
5.21958e-05
2.14238e-07
-5.19754e-05
-1.04477e-07
5.05365e-08
5.19684e-05
3.08468e-07
2.41407e-07
-3.55145e-07
1.78638e-07
-9.80113e-08
4.75718e-08
2.90513e-07
1.85247e-07
-4.81382e-05
4.83246e-05
-4.85567e-05
5.02481e-08
4.85872e-05
1.81751e-07
4.75623e-08
2.4524e-11
-5.20844e-05
-1.3154e-07
5.20374e-05
2.29069e-07
-5.20845e-05
-1.31558e-07
-5.04716e-08
5.20375e-05
2.2909e-07
2.4156e-11
-1.31804e-07
2.23009e-07
-1.31822e-07
-4.75085e-08
2.23031e-07
2.53794e-11
-4.92852e-05
4.92038e-05
-4.92855e-05
-5.01841e-08
4.92042e-05
2.67117e-11
-4.74948e-08
-2.47305e-07
-5.19757e-05
-1.04519e-07
5.19686e-05
3.08465e-07
-5.21667e-05
-3.83533e-07
-1.07546e-07
5.21959e-05
2.14554e-07
-2.4125e-07
-9.80528e-08
2.90512e-07
-3.55182e-07
-1.12072e-07
1.7895e-07
-1.85136e-07
-4.85575e-05
4.85879e-05
-4.81391e-05
-7.54872e-07
4.83253e-05
-1.81639e-07
-7.55002e-07
7.43259e-07
-5.3125e-05
3.07837e-06
5.31043e-05
-3.90846e-06
-5.49882e-05
-2.65322e-06
5.47355e-05
3.64919e-06
7.18976e-07
3.08944e-06
-3.92121e-06
-2.64569e-06
3.62672e-06
2.16828e-06
-4.96575e-05
4.98128e-05
-5.43924e-05
5.39075e-05
2.13336e-06
-7.6919e-07
-5.44924e-05
-2.61133e-06
5.42524e-05
3.62052e-06
-5.30674e-05
2.99101e-06
9.67892e-08
5.301e-05
-3.79955e-06
-7.50419e-07
-2.60445e-06
3.59968e-06
3.00342e-06
1.01042e-07
-3.81753e-06
-2.18273e-06
-5.3464e-05
5.30353e-05
-4.99197e-05
7.3794e-07
4.99901e-05
-2.15704e-06
7.39479e-07
2.51206e-07
-5.22073e-05
-4.28774e-07
5.22008e-05
2.80896e-07
-5.19519e-05
-1.20174e-07
5.44822e-08
5.19245e-05
3.44246e-07
2.4741e-07
-4.04029e-07
2.4616e-07
-1.10719e-07
5.21606e-08
3.22432e-07
1.86644e-07
-4.84756e-05
4.85981e-05
-4.86093e-05
5.3691e-08
4.8622e-05
1.84424e-07
5.16193e-08
2.60897e-11
-5.19864e-05
-1.32948e-07
5.19292e-05
2.44643e-07
-5.19865e-05
-1.32965e-07
-5.44136e-08
5.19293e-05
2.44663e-07
2.50031e-11
-1.30276e-07
2.33342e-07
-1.30293e-07
-5.20946e-08
2.33362e-07
2.6417e-11
-4.91252e-05
4.90459e-05
-4.91254e-05
-5.3625e-08
4.90461e-05
2.54085e-11
-5.15552e-08
-2.51044e-07
-5.19521e-05
-1.20212e-07
5.19247e-05
3.44237e-07
-5.22073e-05
-4.28777e-07
-9.68627e-08
5.22007e-05
2.81187e-07
-2.47251e-07
-1.10757e-07
3.22425e-07
-4.04043e-07
-1.01111e-07
2.46457e-07
-1.86531e-07
-4.86099e-05
4.86226e-05
-4.84762e-05
-7.37707e-07
4.85986e-05
-1.84313e-07
-7.39249e-07
7.68726e-07
-5.30669e-05
2.98932e-06
5.30095e-05
-3.79744e-06
-5.44908e-05
-2.60979e-06
5.42509e-05
3.61841e-06
7.4997e-07
3.00177e-06
-3.81547e-06
-2.60287e-06
3.59755e-06
2.18139e-06
-4.99195e-05
4.99898e-05
-5.34604e-05
5.3032e-05
2.15574e-06
-7.84444e-07
-5.4016e-05
-2.5673e-06
5.37809e-05
3.58689e-06
-5.29377e-05
2.89983e-06
8.70577e-08
5.28467e-05
-3.68032e-06
-7.70535e-07
-2.56181e-06
3.56878e-06
2.91531e-06
9.09394e-08
-3.70448e-06
-2.17882e-06
-5.26356e-05
5.22472e-05
-5.00216e-05
7.18725e-07
5.00239e-05
-2.1621e-06
7.2166e-07
2.51193e-07
-5.2177e-05
-4.6772e-07
5.21353e-05
3.45261e-07
-5.1886e-05
-1.40124e-07
5.71336e-08
5.18345e-05
3.85639e-07
2.49173e-07
-4.44856e-07
3.10444e-07
-1.28623e-07
5.54244e-08
3.60952e-07
1.85834e-07
-4.86902e-05
4.87554e-05
-4.86237e-05
5.58883e-08
4.86135e-05
1.84693e-07
5.44076e-08
2.78318e-11
-5.18653e-05
-1.39355e-07
5.17925e-05
2.69294e-07
-5.18654e-05
-1.39373e-07
-5.70615e-08
5.17925e-05
2.69313e-07
2.67106e-11
-1.34227e-07
2.53499e-07
-1.34244e-07
-5.53547e-08
2.53518e-07
2.81261e-11
-4.8966e-05
4.88825e-05
-4.89663e-05
-5.58193e-08
4.88827e-05
2.70198e-11
-5.43404e-08
-2.5103e-07
-5.18861e-05
-1.4016e-07
5.18346e-05
3.85626e-07
-5.21769e-05
-4.67723e-07
-8.7136e-08
5.21352e-05
3.4555e-07
-2.49011e-07
-1.28659e-07
3.60941e-07
-4.44855e-07
-9.10149e-08
3.10726e-07
-1.85719e-07
-4.86242e-05
4.86139e-05
-4.86906e-05
-7.18493e-07
4.87556e-05
-1.84579e-07
-7.2143e-07
7.83965e-07
-5.29371e-05
2.89813e-06
5.28461e-05
-3.6782e-06
-5.40145e-05
-2.56575e-06
5.37795e-05
3.58475e-06
7.70067e-07
2.91363e-06
-3.70239e-06
-2.5602e-06
3.56661e-06
2.17746e-06
-5.00212e-05
5.00234e-05
-5.26325e-05
5.22442e-05
2.16076e-06
-7.91949e-07
-5.35458e-05
-2.52366e-06
5.33083e-05
3.55309e-06
-5.27415e-05
2.80788e-06
7.84754e-08
5.26183e-05
-3.55508e-06
-7.81218e-07
-2.51731e-06
3.5336e-06
2.82441e-06
8.17975e-08
-3.58225e-06
-2.16371e-06
-5.18806e-05
5.15206e-05
-4.99958e-05
6.99101e-07
4.99408e-05
-2.15073e-06
7.01829e-07
2.48565e-07
-5.20772e-05
-5.03992e-07
5.20005e-05
4.10534e-07
-5.17707e-05
-1.63808e-07
5.87055e-08
5.16926e-05
4.31775e-07
2.47664e-07
-4.81682e-07
3.7395e-07
-1.50157e-07
5.74652e-08
4.0417e-07
1.83581e-07
-4.87925e-05
4.8804e-05
-4.85904e-05
5.71165e-08
4.8553e-05
1.83045e-07
5.60588e-08
2.92349e-11
-5.1711e-05
-1.50899e-07
5.16184e-05
3.02233e-07
-5.17111e-05
-1.50916e-07
-5.8631e-08
5.16184e-05
3.0225e-07
2.83154e-11
-1.43085e-07
2.81989e-07
-1.43103e-07
-5.73925e-08
2.82007e-07
2.9506e-11
-4.87955e-05
4.87017e-05
-4.87956e-05
-5.70456e-08
4.87018e-05
2.85946e-11
-5.59897e-08
-2.48402e-07
-5.17707e-05
-1.63842e-07
5.16926e-05
4.3176e-07
-5.2077e-05
-5.03996e-07
-7.85576e-08
5.20003e-05
4.10829e-07
-2.47503e-07
-1.50194e-07
4.04158e-07
-4.81685e-07
-8.18767e-08
3.74244e-07
-1.83466e-07
-4.85907e-05
4.85532e-05
-4.87926e-05
-6.98874e-07
4.8804e-05
-1.82932e-07
-7.01602e-07
7.91458e-07
-5.27409e-05
2.80618e-06
5.26177e-05
-3.55296e-06
-5.35445e-05
-2.52213e-06
5.33071e-05
3.55096e-06
7.80738e-07
2.82273e-06
-3.58015e-06
-2.5157e-06
3.53143e-06
2.16234e-06
-4.99951e-05
4.99401e-05
-5.18779e-05
5.15181e-05
2.14938e-06
-7.93645e-07
-5.30682e-05
-2.4851e-06
5.28225e-05
3.5244e-06
-5.24821e-05
2.7167e-06
7.10408e-08
5.2327e-05
-3.42622e-06
-7.85447e-07
-2.47627e-06
3.50185e-06
2.7321e-06
7.38961e-08
-3.4553e-06
-2.14043e-06
-5.11758e-05
5.08311e-05
-4.98591e-05
6.7965e-07
4.97557e-05
-2.13139e-06
6.82414e-07
2.44262e-07
-5.19075e-05
-5.37361e-07
5.17957e-05
4.75974e-07
-5.1601e-05
-1.89879e-07
5.94159e-08
5.14936e-05
4.82162e-07
2.4408e-07
-5.16325e-07
4.39164e-07
-1.74849e-07
5.85597e-08
4.51909e-07
1.80292e-07
-4.87899e-05
4.87519e-05
-4.85015e-05
5.75235e-08
4.84344e-05
1.80205e-07
5.68322e-08
3.01956e-11
-5.15153e-05
-1.67029e-07
5.13987e-05
3.43011e-07
-5.15153e-05
-1.67044e-07
-5.93396e-08
5.13987e-05
3.43026e-07
2.94581e-11
-1.56854e-07
3.18453e-07
-1.5687e-07
-5.8485e-08
3.18469e-07
3.04624e-11
-4.86016e-05
4.84921e-05
-4.86017e-05
-5.74511e-08
4.84922e-05
2.972e-11
-5.67612e-08
-2.441e-07
-5.1601e-05
-1.8991e-07
5.14935e-05
4.82143e-07
-5.19072e-05
-5.37357e-07
-7.11256e-08
5.17954e-05
4.76253e-07
-2.43919e-07
-1.74881e-07
4.51892e-07
-5.1632e-07
-7.39788e-08
4.39445e-07
-1.80177e-07
-4.85017e-05
4.84345e-05
-4.87898e-05
-6.79428e-07
4.87517e-05
-1.80091e-07
-6.82192e-07
7.93147e-07
-5.24815e-05
2.71502e-06
5.23263e-05
-3.42412e-06
-5.30671e-05
-2.48358e-06
5.28215e-05
3.5223e-06
7.84957e-07
2.73044e-06
-3.45322e-06
-2.47468e-06
3.4997e-06
2.13905e-06
-4.98583e-05
4.97548e-05
-5.11735e-05
5.08289e-05
2.13003e-06
-7.9011e-07
-5.2571e-05
-2.44799e-06
5.23113e-05
3.49785e-06
-5.21595e-05
2.62204e-06
6.45983e-08
5.19725e-05
-3.28976e-06
-7.84378e-07
-2.43826e-06
3.47417e-06
2.64003e-06
6.70266e-08
-3.32398e-06
-2.10898e-06
-5.04968e-05
5.01578e-05
-4.96287e-05
6.60086e-07
4.94817e-05
-2.10396e-06
6.63064e-07
2.38665e-07
-5.16679e-05
-5.68476e-07
5.15208e-05
5.41485e-07
-5.13719e-05
-2.18394e-07
5.93691e-08
5.12329e-05
5.36676e-07
2.39116e-07
-5.48064e-07
5.0375e-07
-2.01847e-07
5.88694e-08
5.03776e-07
1.762e-07
-4.86904e-05
4.86058e-05
-4.83522e-05
5.72522e-08
4.82528e-05
1.76521e-07
5.6878e-08
3.08071e-11
-5.12701e-05
-1.8777e-07
5.1126e-05
3.91213e-07
-5.127e-05
-1.87785e-07
-5.92918e-08
5.11259e-05
3.91225e-07
3.02248e-11
-1.75031e-07
3.62501e-07
-1.75047e-07
-5.87933e-08
3.62514e-07
3.11517e-11
-4.83739e-05
4.82433e-05
-4.83739e-05
-5.71792e-08
4.82434e-05
3.05345e-11
-5.6806e-08
-2.38506e-07
-5.13718e-05
-2.18421e-07
5.12328e-05
5.36653e-07
-5.16676e-05
-5.68463e-07
-6.46848e-08
5.15204e-05
5.41749e-07
-2.38957e-07
-2.01875e-07
5.03755e-07
-5.48052e-07
-6.71114e-08
5.04017e-07
-1.76086e-07
-4.83522e-05
4.82527e-05
-4.86901e-05
-6.59871e-07
4.86054e-05
-1.76407e-07
-6.62848e-07
7.89609e-07
-5.21589e-05
2.6204e-06
5.19719e-05
-3.28769e-06
-5.257e-05
-2.4465e-06
5.23104e-05
3.49578e-06
7.83884e-07
2.6384e-06
-3.32193e-06
-2.4367e-06
3.47205e-06
2.10762e-06
-4.96278e-05
4.94807e-05
-5.04948e-05
5.0156e-05
2.1026e-06
-7.83355e-07
-5.20429e-05
-2.41692e-06
5.17634e-05
3.47981e-06
-5.17729e-05
2.52787e-06
5.91458e-08
5.15528e-05
-3.15023e-06
-7.79328e-07
-2.40503e-06
3.45271e-06
2.54721e-06
6.11655e-08
-3.18811e-06
-2.07396e-06
-4.98241e-05
4.94811e-05
-4.93134e-05
6.41431e-07
4.91258e-05
-2.0713e-06
6.4425e-07
2.32489e-07
-5.13576e-05
-5.98839e-07
5.1174e-05
6.09064e-07
-5.10787e-05
-2.49508e-07
5.87918e-08
5.09056e-05
5.9636e-07
2.33294e-07
-5.78416e-07
5.6954e-07
-2.31396e-07
5.8554e-08
5.60345e-07
1.71766e-07
-4.84993e-05
4.83702e-05
-4.81373e-05
5.65319e-08
4.8003e-05
1.72305e-07
5.63812e-08
3.11329e-11
-5.09683e-05
-2.13152e-07
5.0793e-05
4.47217e-07
-5.09682e-05
-2.13166e-07
-5.87144e-08
5.07929e-05
4.47227e-07
3.07021e-11
-1.97937e-07
4.14164e-07
-1.97951e-07
-5.84774e-08
4.14175e-07
3.15076e-11
-4.81018e-05
4.79451e-05
-4.81018e-05
-5.64589e-08
4.79451e-05
3.10661e-11
-5.63089e-08
-2.32333e-07
-5.10785e-05
-2.49531e-07
5.09054e-05
5.96332e-07
-5.13572e-05
-5.98819e-07
-5.92329e-08
5.11736e-05
6.09314e-07
-2.33138e-07
-2.3142e-07
5.60319e-07
-5.78397e-07
-6.12514e-08
5.69792e-07
-1.71655e-07
-4.81372e-05
4.80028e-05
-4.84988e-05
-6.41223e-07
4.83696e-05
-1.72193e-07
-6.44041e-07
7.82854e-07
-5.17723e-05
2.52626e-06
5.15521e-05
-3.14821e-06
-5.20421e-05
-2.41547e-06
5.17626e-05
3.47778e-06
7.78831e-07
2.54562e-06
-3.18609e-06
-2.40349e-06
3.45063e-06
2.07261e-06
-4.93123e-05
4.91247e-05
-4.98224e-05
4.94796e-05
2.06996e-06
-7.73939e-07
-5.14727e-05
-2.39127e-06
5.11681e-05
3.46989e-06
-5.13195e-05
2.43272e-06
5.4568e-08
5.10643e-05
-3.00605e-06
-7.71231e-07
-2.37697e-06
3.43883e-06
2.45357e-06
5.62101e-08
-3.04774e-06
-2.03588e-06
-4.91391e-05
4.87837e-05
-4.89183e-05
6.23553e-07
4.86915e-05
-2.035e-06
6.26163e-07
2.25937e-07
-5.09738e-05
-6.294e-07
5.07521e-05
6.7981e-07
-5.07162e-05
-2.83293e-07
5.77969e-08
5.05061e-05
6.61539e-07
2.26965e-07
-6.08455e-07
6.37873e-07
-2.635e-07
5.77613e-08
6.221e-07
1.67117e-07
-4.82201e-05
4.80471e-05
-4.78518e-05
5.54666e-08
4.76802e-05
1.67791e-07
5.54842e-08
3.1147e-11
-5.06025e-05
-2.4294e-07
5.03923e-05
5.10901e-07
-5.06025e-05
-2.42953e-07
-5.772e-08
5.03922e-05
5.10909e-07
3.08669e-11
-2.2526e-07
4.73418e-07
-2.25273e-07
-5.76849e-08
4.73427e-07
3.15184e-11
-4.77753e-05
4.75878e-05
-4.77753e-05
-5.53944e-08
4.75877e-05
3.12424e-11
-5.54123e-08
-2.25785e-07
-5.07159e-05
-2.83311e-07
5.05058e-05
6.61507e-07
-5.09734e-05
-6.29373e-07
-5.46549e-08
5.07516e-05
6.80045e-07
-2.26812e-07
-2.63519e-07
6.2207e-07
-6.08429e-07
-5.62962e-08
6.38111e-07
-1.67009e-07
-4.78516e-05
4.76799e-05
-4.82194e-05
-6.23352e-07
4.80464e-05
-1.67683e-07
-6.25961e-07
7.73441e-07
-5.13189e-05
2.43115e-06
5.10637e-05
-3.00408e-06
-5.1472e-05
-2.38985e-06
5.11674e-05
3.46791e-06
7.70736e-07
2.45202e-06
-3.04578e-06
-2.37548e-06
3.4368e-06
2.03456e-06
-4.89171e-05
4.86904e-05
-4.91378e-05
4.87825e-05
2.03367e-06
-7.62554e-07
-5.085e-05
-2.37124e-06
5.0515e-05
3.46879e-06
-5.07952e-05
2.33629e-06
5.07821e-08
5.05026e-05
-2.85698e-06
-7.6087e-07
-2.35445e-06
3.43342e-06
2.35885e-06
5.20804e-08
-2.90268e-06
-1.99573e-06
-4.84255e-05
4.805e-05
-4.84453e-05
6.0649e-07
4.81794e-05
-1.9962e-06
6.08875e-07
2.19216e-07
-5.0513e-05
-6.61038e-07
5.02508e-05
7.54791e-07
-5.02786e-05
-3.1995e-07
5.64936e-08
5.00286e-05
7.32715e-07
2.20377e-07
-6.39145e-07
7.09891e-07
-2.98349e-07
5.66127e-08
6.89557e-07
1.62383e-07
-4.78537e-05
4.76368e-05
-4.74907e-05
5.41545e-08
4.7279e-05
1.63136e-07
5.42977e-08
3.08876e-11
-5.01655e-05
-2.77062e-07
4.99167e-05
5.8233e-07
-5.01654e-05
-2.77072e-07
-5.64178e-08
4.99166e-05
5.82336e-07
3.07411e-11
-2.5691e-07
5.40312e-07
-2.56921e-07
-5.65371e-08
5.40318e-07
3.12376e-11
-4.73851e-05
4.71622e-05
-4.73851e-05
-5.40835e-08
4.71621e-05
3.11026e-11
-5.42267e-08
-2.19069e-07
-5.02783e-05
-3.19964e-07
5.00283e-05
7.32679e-07
-5.05125e-05
-6.61006e-07
-5.08682e-08
5.02503e-05
7.55011e-07
-2.20228e-07
-2.98364e-07
6.89522e-07
-6.39114e-07
-5.2166e-08
7.10115e-07
-1.62277e-07
-4.74903e-05
4.72786e-05
-4.78529e-05
-6.06297e-07
4.7636e-05
-1.6303e-07
-6.08681e-07
7.62061e-07
-5.07946e-05
2.33478e-06
5.05019e-05
-2.85506e-06
-5.08493e-05
-2.36986e-06
5.05144e-05
3.46686e-06
7.60379e-07
2.35734e-06
-2.90077e-06
-2.35299e-06
3.43144e-06
1.99444e-06
-4.84441e-05
4.81782e-05
-4.84244e-05
4.8049e-05
1.9949e-06
-7.49561e-07
-5.01644e-05
-2.3563e-06
4.97942e-05
3.4761e-06
-5.01951e-05
2.23781e-06
4.7692e-08
4.98623e-05
-2.70225e-06
-7.48539e-07
-2.33651e-06
3.43557e-06
2.26177e-06
4.86734e-08
-2.75156e-06
-1.9538e-06
-4.76684e-05
4.72659e-05
-4.7894e-05
5.90098e-07
4.75879e-05
-1.95497e-06
5.92159e-07
2.12421e-07
-4.99706e-05
-6.9427e-07
4.96656e-05
8.34627e-07
-4.97602e-05
-3.5957e-07
5.49547e-08
4.94671e-05
8.10095e-07
2.13613e-07
-6.71023e-07
7.86262e-07
-3.36008e-07
5.51816e-08
7.62871e-07
1.57611e-07
-4.73995e-05
4.71378e-05
-4.70484e-05
5.26582e-08
4.67938e-05
1.5838e-07
5.28854e-08
3.03883e-11
-4.96499e-05
-3.15368e-07
4.93588e-05
6.61373e-07
-4.96498e-05
-3.15377e-07
-5.48805e-08
4.93587e-05
6.61377e-07
3.03517e-11
-2.92702e-07
6.14656e-07
-2.92712e-07
-5.51073e-08
6.1466e-07
3.07098e-11
-4.69224e-05
4.66596e-05
-4.69222e-05
-5.25887e-08
4.66595e-05
3.06879e-11
-5.28158e-08
-2.12278e-07
-4.97598e-05
-3.5958e-07
4.94667e-05
8.10055e-07
-4.99701e-05
-6.94233e-07
-4.7777e-08
4.9665e-05
8.34833e-07
-2.13469e-07
-3.36019e-07
7.62832e-07
-6.70986e-07
-4.8758e-08
7.86471e-07
-1.57509e-07
-4.7048e-05
4.67933e-05
-4.73987e-05
-5.89913e-07
4.71368e-05
-1.58277e-07
-5.91972e-07
7.49076e-07
-5.01945e-05
2.23634e-06
4.98617e-05
-2.70039e-06
-5.01639e-05
-2.35496e-06
4.97937e-05
3.47421e-06
7.48056e-07
2.26031e-06
-2.7497e-06
-2.3351e-06
3.43363e-06
1.95253e-06
-4.78928e-05
4.75867e-05
-4.76676e-05
4.72651e-05
1.9537e-06
-7.35552e-07
-4.94064e-05
-2.34715e-06
4.89961e-05
3.49298e-06
-4.95135e-05
2.13758e-06
4.52219e-08
4.91374e-05
-2.54223e-06
-7.35298e-07
-2.32521e-06
3.44835e-06
2.16404e-06
4.5942e-08
-2.59649e-06
-1.91109e-06
-4.68542e-05
4.64181e-05
-4.72621e-05
5.7449e-07
4.69141e-05
-1.91345e-06
5.76457e-07
2.057e-07
-4.93415e-05
-7.29633e-07
4.89907e-05
9.19915e-07
-4.91544e-05
-4.02332e-07
5.32597e-08
4.88151e-05
8.94083e-07
2.06962e-07
-7.05068e-07
8.68117e-07
-3.76851e-07
5.35862e-08
8.42904e-07
1.52897e-07
-4.68554e-05
4.65474e-05
-4.65193e-05
5.10461e-08
4.62189e-05
1.53715e-07
5.13527e-08
2.97127e-11
-4.90483e-05
-3.57835e-07
4.87112e-05
7.48141e-07
-4.90481e-05
-3.57842e-07
-5.31874e-08
4.8711e-05
7.48142e-07
2.97701e-11
-3.32764e-07
6.96888e-07
-3.32772e-07
-5.35136e-08
6.96891e-07
2.99978e-11
-4.63782e-05
4.60714e-05
-4.6378e-05
-5.09785e-08
4.60712e-05
3.00746e-11
-5.12849e-08
-2.05562e-07
-4.9154e-05
-4.02338e-07
4.88147e-05
8.94039e-07
-4.93409e-05
-7.29591e-07
-4.53052e-08
4.89901e-05
9.20106e-07
-2.06823e-07
-3.76858e-07
8.42862e-07
-7.05027e-07
-4.60252e-08
8.68312e-07
-1.52799e-07
-4.65188e-05
4.62183e-05
-4.68545e-05
-5.74311e-07
4.65464e-05
-1.53615e-07
-5.76277e-07
7.35078e-07
-4.95129e-05
2.13616e-06
4.91368e-05
-2.54043e-06
-4.94059e-05
-2.34584e-06
4.89957e-05
3.49115e-06
7.34823e-07
2.16263e-06
-2.59469e-06
-2.32384e-06
3.44647e-06
1.90986e-06
-4.72609e-05
4.69128e-05
-4.68535e-05
4.64175e-05
1.91222e-06
-7.20741e-07
-4.85663e-05
-2.34335e-06
4.81114e-05
3.51902e-06
-4.87441e-05
2.03519e-06
4.32851e-08
4.83214e-05
-2.37648e-06
-7.2097e-07
-2.31877e-06
3.46953e-06
2.06365e-06
4.37675e-08
-2.43508e-06
-1.8678e-06
-4.59701e-05
4.54946e-05
-4.65456e-05
5.59553e-07
4.61535e-05
-1.87077e-06
5.61322e-07
1.99079e-07
-4.862e-05
-7.67318e-07
4.82207e-05
1.01083e-06
-4.8455e-05
-4.48247e-07
5.14513e-08
4.80662e-05
9.8467e-07
2.00345e-07
-7.41175e-07
9.55282e-07
-4.2073e-07
5.18449e-08
9.29293e-07
1.48253e-07
-4.62185e-05
4.58624e-05
-4.58975e-05
4.9352e-08
4.55481e-05
1.49074e-07
4.97102e-08
2.89021e-11
-4.83533e-05
-4.04306e-07
4.79666e-05