/*--------------------------------*- C++ -*----------------------------------*\
  =========                 |
  \\      /  F ield         | OpenFOAM: The Open Source CFD Toolbox
   \\    /   O peration     | Website:  https://openfoam.org
    \\  /    A nd           | Version:  9
     \\/     M anipulation  |
\*---------------------------------------------------------------------------*/
FoamFile
{
    format      ascii;
    class       volVectorField;
    location    "3.1";
    object      U;
}
// * * * * * * * * * * * * * * * * * * * * * * * * * * * * * * * * * * * * * //

dimensions      [0 1 -1 0 0 0 0];

internalField   nonuniform List<vector> 
36360
(
(0.00389789 -0.124004 -0.497293)
(-0.000783947 -0.0904384 0.000206286)
(0.00410967 -0.128275 -0.499967)
(-0.00218424 -0.0825916 0.000121961)
(0.00328318 -0.141185 -0.500761)
(0.00523776 -0.0713478 -2.4167e-06)
(0.00779123 -0.150818 -0.501839)
(0.00456808 -0.0737877 1.55861e-06)
(0.00263637 -0.0964913 -0.000133364)
(0.000131769 -0.100497 -6.58123e-06)
(0.00043166 -0.0947308 -8.43796e-05)
(-0.00178524 -0.0988007 -3.86132e-06)
(0.00649598 -0.0973757 1.39714e-05)
(0.00444339 -0.105361 -4.36762e-06)
(0.00708112 -0.104057 -6.28328e-06)
(0.00632496 -0.108956 -6.92387e-06)
(-0.00226352 -0.102232 -3.21597e-08)
(-0.00226145 -0.102233 3.53267e-08)
(-0.00317153 -0.100073 -1.6192e-07)
(-0.00317065 -0.100075 1.63808e-07)
(0.00428547 -0.10519 -7.98129e-07)
(0.00428482 -0.105191 8.03347e-07)
(0.0065932 -0.107669 -1.81328e-06)
(0.00659275 -0.107671 1.81753e-06)
(0.000133967 -0.1005 6.58967e-06)
(0.00263671 -0.0964955 0.000133405)
(-0.00178298 -0.0988038 3.86546e-06)
(0.000432731 -0.0947357 8.44116e-05)
(0.00444268 -0.105363 4.37568e-06)
(0.00649457 -0.0973785 -1.39589e-05)
(0.00632409 -0.108959 6.9264e-06)
(0.00707979 -0.104059 6.27996e-06)
(-0.000784063 -0.0904409 -0.000206308)
(0.0038986 -0.123997 0.497292)
(-0.00218467 -0.0825955 -0.000121975)
(0.00411034 -0.128267 0.499967)
(0.00523537 -0.0713517 2.38265e-06)
(0.00328345 -0.141174 0.500761)
(0.00456456 -0.0737879 -1.56664e-06)
(0.007792 -0.150808 0.501839)
(0.00606394 -0.120687 -0.495287)
(-0.00465134 -0.0939787 0.000157575)
(0.00541268 -0.123134 -0.496344)
(-0.00265874 -0.0919897 0.000188019)
(0.00297001 -0.134938 -0.500774)
(-0.00154421 -0.0692131 -0.000121394)
(0.00270062 -0.138084 -0.500997)
(0.00188834 -0.0677445 -5.49928e-05)
(0.00227999 -0.0969762 -6.67946e-05)
(0.00184695 -0.100828 -9.97128e-06)
(0.00291749 -0.0967474 -0.000103846)
(0.00162025 -0.10091 -7.63945e-06)
(0.00381185 -0.0880112 0.00015322)
(0.00277978 -0.0990882 -2.15115e-06)
(0.00558352 -0.0910512 7.9634e-05)
(0.00368283 -0.101702 -3.54906e-06)
(0.00106716 -0.102715 -2.08318e-06)
(0.00106735 -0.102716 2.09671e-06)
(5.34772e-05 -0.102938 -1.71119e-07)
(5.44714e-05 -0.102938 1.77343e-07)
(0.00205552 -0.102201 -2.16156e-06)
(0.00205539 -0.102202 2.17417e-06)
(0.00265232 -0.10355 -8.52372e-07)
(0.00265208 -0.103551 8.59905e-07)
(0.00184693 -0.10083 9.99252e-06)
(0.00227986 -0.096979 6.68243e-05)
(0.0016209 -0.100913 7.65463e-06)
(0.00291735 -0.0967505 0.000103879)
(0.00277907 -0.0990901 2.17205e-06)
(0.00381105 -0.0880158 -0.000153191)
(0.00368236 -0.101704 3.56398e-06)
(0.00558217 -0.091055 -7.96154e-05)
(-0.00465073 -0.0939796 -0.000157628)
(0.00606417 -0.120681 0.495288)
(-0.00265857 -0.0919908 -0.000188054)
(0.00541313 -0.123128 0.496344)
(-0.00154437 -0.069218 0.000121302)
(0.00297002 -0.134926 0.500774)
(0.00188718 -0.0677494 5.4933e-05)
(0.00270074 -0.138073 0.500997)
(0.00660223 -0.116505 -0.49362)
(-0.00676501 -0.0962165 7.10996e-05)
(0.00638356 -0.118432 -0.494374)
(-0.00594679 -0.0952374 0.000117423)
(0.00358974 -0.128051 -0.500456)
(-0.00429953 -0.0742918 -0.000272619)
(0.00329597 -0.131382 -0.500598)
(-0.00334814 -0.0714676 -0.000195358)
(0.000986862 -0.0966901 1.5977e-05)
(0.00133898 -0.0999785 2.55963e-06)
(0.00155984 -0.0968435 -2.51767e-05)
(0.00166008 -0.100479 -6.54707e-06)
(0.00193376 -0.0847336 0.000301973)
(0.00131294 -0.095168 1.44197e-05)
(0.00264103 -0.0858489 0.000229515)
(0.00189987 -0.0968298 4.07558e-06)
(0.00111221 -0.10181 -3.76784e-06)
(0.00111214 -0.101811 3.79226e-06)
(0.00126295 -0.102317 -3.6485e-06)
(0.00126291 -0.102317 3.66824e-06)
(0.00107855 -0.098941 -3.21981e-06)
(0.00107841 -0.0989418 3.24243e-06)
(0.0015842 -0.100397 -3.10595e-06)
(0.00158396 -0.100398 3.12363e-06)
(0.00133883 -0.0999804 -2.5271e-06)
(0.000986939 -0.0966923 -1.59474e-05)
(0.00165991 -0.100481 6.57383e-06)
(0.00155981 -0.096846 2.52055e-05)
(0.00131261 -0.0951708 -1.43855e-05)
(0.00193356 -0.0847387 -0.000301909)
(0.00189927 -0.0968323 -4.04854e-06)
(0.00264061 -0.0858539 -0.00022947)
(-0.00676383 -0.0962169 -7.11873e-05)
(0.00660176 -0.116499 0.493621)
(-0.0059459 -0.0952381 -0.000117493)
(0.00638341 -0.118426 0.494375)
(-0.00429875 -0.0742966 0.000272448)
(0.00358908 -0.128038 0.500457)
(-0.00334783 -0.0714726 0.000195229)
(0.00329561 -0.131369 0.500598)
(0.00692017 -0.113381 -0.492297)
(-0.00758591 -0.0977647 -2.80891e-05)
(0.00677503 -0.114837 -0.492897)
(-0.0072685 -0.0970454 2.17967e-05)
(0.00394621 -0.122114 -0.500213)
(-0.00512189 -0.0798839 -0.000425334)
(0.00379687 -0.124962 -0.500324)
(-0.0048057 -0.0771733 -0.000349956)
(0.000298203 -0.0967441 8.64643e-05)
(0.000823171 -0.0991777 3.06936e-05)
(0.000574116 -0.0966562 5.35581e-05)
(0.00105021 -0.0995321 1.55564e-05)
(0.00119115 -0.0844716 0.000426233)
(0.000714036 -0.0932097 4.3794e-05)
(0.00147335 -0.0843581 0.000367882)
(0.000952186 -0.0940156 2.8017e-05)
(0.000718743 -0.100847 -6.78657e-07)
(0.000718705 -0.100848 7.13163e-07)
(0.000897978 -0.101302 -2.73805e-06)
(0.000897923 -0.101302 2.7672e-06)
(0.000557163 -0.0971285 -4.75027e-07)
(0.000557114 -0.0971293 5.08565e-07)
(0.00075158 -0.0978997 -2.33238e-06)
(0.0007515 -0.0979005 2.3602e-06)
(0.00082312 -0.0991794 -3.06444e-05)
(0.000298395 -0.096746 -8.64296e-05)
(0.00105012 -0.0995339 -1.5516e-05)
(0.000574267 -0.0966583 -5.35264e-05)
(0.000713979 -0.0932126 -4.37411e-05)
(0.00119108 -0.0844766 -0.000426128)
(0.000952038 -0.0940185 -2.79741e-05)
(0.00147324 -0.0843633 -0.000367797)
(-0.00758425 -0.0977648 2.79621e-05)
(0.00691903 -0.113375 0.4923)
(-0.00726708 -0.0970457 -2.19033e-05)
(0.00677417 -0.114831 0.492899)
(-0.00512038 -0.0798879 0.000425072)
(0.00394492 -0.122102 0.500213)
(-0.00480456 -0.0771777 0.000349741)
(0.00379581 -0.12495 0.500324)
(0.00714925 -0.110994 -0.491216)
(-0.00792529 -0.0989421 -0.000124528)
(0.00704108 -0.112111 -0.491699)
(-0.00778885 -0.0983938 -7.72057e-05)
(0.00410852 -0.117183 -0.500012)
(-0.00545355 -0.0845341 -0.000565354)
(0.0040367 -0.119526 -0.500104)
(-0.00531515 -0.0823486 -0.000497413)
(2.67336e-05 -0.0971484 0.000137477)
(0.000532011 -0.0987621 6.34888e-05)
(0.000128767 -0.0969184 0.000114374)
(0.000654412 -0.0989253 4.69374e-05)
(0.000940835 -0.0854621 0.000519864)
(0.000417139 -0.0922888 7.82898e-05)
(0.00102733 -0.0848724 0.000476732)
(0.000543858 -0.092653 6.08329e-05)
(0.000501241 -0.100166 5.83108e-06)
(0.000501224 -0.100166 -5.77892e-06)
(0.000590295 -0.10047 2.25267e-06)
(0.000590271 -0.100471 -2.21148e-06)
(0.000375658 -0.0960396 5.56253e-06)
(0.000375632 -0.0960405 -5.50726e-06)
(0.000443955 -0.0965271 2.22234e-06)
(0.000443922 -0.0965279 -2.18168e-06)
(0.000532015 -0.0987637 -6.34175e-05)
(2.7016e-05 -0.0971501 -0.000137439)
(0.000654385 -0.098927 -4.6878e-05)
(0.00012898 -0.0969202 -0.000114336)
(0.000417141 -0.0922917 -7.82174e-05)
(0.000940724 -0.0854668 -0.000519726)
(0.000543833 -0.092656 -6.07688e-05)
(0.00102722 -0.0848774 -0.000476608)
(-0.00792318 -0.0989419 0.000124357)
(0.00714749 -0.110988 0.491219)
(-0.00778698 -0.0983937 7.70573e-05)
(0.00703955 -0.112105 0.491702)
(-0.00545146 -0.0845372 0.000564998)
(0.00410674 -0.117171 0.500013)
(-0.00531336 -0.0823521 0.000497103)
(0.00403507 -0.119513 0.500104)
(0.00732541 -0.109127 -0.490329)
(-0.00807463 -0.0998093 -0.000211635)
(0.00724088 -0.110008 -0.490715)
(-0.00801449 -0.0994124 -0.000169464)
(0.00419031 -0.113161 -0.499845)
(-0.00559288 -0.0880854 -0.000687067)
(0.00414805 -0.11507 -0.49992)
(-0.00553462 -0.08644 -0.000628598)
(-5.00612e-05 -0.0976822 0.000170817)
(0.000383435 -0.098626 9.55424e-05)
(-2.91863e-05 -0.0974081 0.000156118)
(0.000443857 -0.0986683 7.98118e-05)
(0.000908405 -0.0868936 0.000586428)
(0.000241198 -0.0919448 0.000112201)
(0.000909882 -0.086151 0.000556121)
(0.000319113 -0.0920654 9.5532e-05)
(0.000398635 -0.0997305 1.41762e-05)
(0.000398645 -0.0997311 -1.40209e-05)
(0.000440637 -0.0999234 9.86053e-06)
(0.000440625 -0.0999239 -9.77708e-06)
(0.000300883 -0.0952838 1.33773e-05)
(0.000300834 -0.0952846 -1.33204e-05)
(0.000331827 -0.0956322 9.37259e-06)
(0.0003318 -0.095633 -9.2355e-06)
(0.000383462 -0.0986273 -9.52917e-05)
(-4.98471e-05 -0.0976835 -0.000170908)
(0.000443851 -0.0986698 -7.9721e-05)
(-2.89026e-05 -0.0974096 -0.000156093)
(0.000241347 -0.0919475 -0.000112004)
(0.000908395 -0.0868977 -0.000586192)
(0.000319138 -0.0920682 -9.55027e-05)
(0.000909841 -0.0861555 -0.000556032)
(-0.00807216 -0.099809 0.000211379)
(0.00732314 -0.109121 0.490334)
(-0.00801219 -0.0994122 0.000169269)
(0.00723877 -0.110002 0.490719)
(-0.0055904 -0.0880878 0.000686568)
(0.00418809 -0.11315 0.499846)
(-0.00553237 -0.0864427 0.000628238)
(0.00414594 -0.115058 0.499921)
(0.00746515 -0.107613 -0.489602)
(-0.00813194 -0.100402 -0.000286732)
(0.0073969 -0.108334 -0.489907)
(-0.00810996 -0.100137 -0.000250694)
(0.00423729 -0.109872 -0.499705)
(-0.0056412 -0.0906769 -0.000789367)
(0.00420942 -0.111437 -0.499766)
(-0.00561701 -0.0894885 -0.000740441)
(-2.4038e-05 -0.0982147 0.00019106)
(0.000323894 -0.0986354 0.000123393)
(-4.50784e-05 -0.0979554 0.000182363)
(0.000345638 -0.0986192 0.000110017)
(0.00097931 -0.0883826 0.000631573)
(0.000131762 -0.0919001 0.000142584)
(0.000934836 -0.0876465 0.00061119)
(0.000179752 -0.0918957 0.000127692)
(0.000347383 -0.0994481 2.2864e-05)
(0.000347602 -0.0994485 -2.28298e-05)
(0.000369199 -0.0995755 1.85241e-05)
(0.000369218 -0.099576 -1.84539e-05)
(0.000258629 -0.0947124 2.15136e-05)
(0.000258834 -0.0947134 -2.19122e-05)
(0.000278116 -0.0949803 1.76283e-05)
(0.000278115 -0.0949809 -1.74225e-05)
(0.000323903 -0.0986366 -0.000123196)
(-2.40643e-05 -0.0982156 -0.000190934)
(0.000345603 -0.0986204 -0.000109962)
(-4.48549e-05 -0.0979565 -0.000182247)
(0.00013187 -0.0919024 -0.000141304)
(0.000979068 -0.0883856 -0.000631126)
(0.000179791 -0.0918983 -0.000127595)
(0.00093485 -0.0876504 -0.000611081)
(-0.00812919 -0.100401 0.000286425)
(0.00746241 -0.107608 0.489607)
(-0.00810733 -0.100136 0.000250476)
(0.0073943 -0.108329 0.489912)
(-0.00563842 -0.0906784 0.000788254)
(0.00423469 -0.109861 0.499706)
(-0.00561438 -0.0894906 0.000739999)
(0.00420686 -0.111426 0.499767)
(0.00757699 -0.106342 -0.489009)
(-0.00813994 -0.100761 -0.000349838)
(0.007522 -0.106953 -0.48925)
(-0.00813912 -0.100608 -0.000319629)
(0.00426191 -0.107147 -0.49959)
(-0.00564801 -0.0925006 -0.000872901)
(0.00424359 -0.108448 -0.499639)
(-0.00564101 -0.0916727 -0.00083246)
(5.09694e-05 -0.0986567 0.000202012)
(0.000320742 -0.0986957 0.000145985)
(9.01624e-06 -0.0984499 0.000197367)
(0.000316947 -0.0986636 0.000135189)
(0.00109862 -0.0897204 0.000660442)
(7.18088e-05 -0.0920036 0.000167218)
(0.00103744 -0.0890771 0.000647619)
(9.66738e-05 -0.09194 0.000153781)
(0.000319778 -0.099249 3.10857e-05)
(0.000320084 -0.0992494 -3.09835e-05)
(0.000331282 -0.0993412 2.70751e-05)
(0.000330982 -0.0993417 -2.70157e-05)
(0.000222819 -0.0942591 2.95899e-05)
(0.000223143 -0.0942596 -2.97443e-05)
(0.000240725 -0.0944731 2.60555e-05)
(0.000240425 -0.0944737 -2.55035e-05)
(0.000320589 -0.0986966 -0.000145736)
(5.09184e-05 -0.0986574 -0.000201917)
(0.000317127 -0.0986646 -0.000135271)
(9.77173e-06 -0.0984507 -0.000197457)
(7.17884e-05 -0.0920059 -0.00016554)
(0.00109822 -0.0897235 -0.000660324)
(9.69747e-05 -0.0919424 -0.000155926)
(0.0010378 -0.0890802 -0.000647471)
(-0.00813688 -0.10076 0.000349474)
(0.00757387 -0.106338 0.489016)
(-0.00813594 -0.100607 0.00031945)
(0.0075191 -0.106949 0.489256)
(-0.00564495 -0.0925019 0.000871569)
(0.00425901 -0.107137 0.499591)
(-0.00563789 -0.0916741 0.000832939)
(0.00424077 -0.108438 0.499641)
(0.00766384 -0.105237 -0.488522)
(-0.00812133 -0.100926 -0.00040205)
(0.0076207 -0.105773 -0.488709)
(-0.00813203 -0.100865 -0.000377172)
(0.00427011 -0.104854 -0.499494)
(-0.00563465 -0.0937317 -0.000939572)
(0.00425874 -0.105953 -0.499534)
(-0.00563547 -0.09318 -0.000907875)
(0.000157786 -0.0989728 0.000206835)
(0.000351511 -0.0987464 0.00016337)
(0.00010249 -0.0988314 0.000205029)
(0.000333082 -0.0987248 0.000155244)
(0.00122308 -0.0908187 0.000677989)
(4.44691e-05 -0.0921553 0.000185413)
(0.00116286 -0.0903019 0.000670459)
(5.51575e-05 -0.0920776 0.000176469)
(0.000311612 -0.0990847 3.81995e-05)
(0.000311656 -0.099085 -3.81041e-05)
(0.000313653 -0.0991651 3.47999e-05)
(0.000313648 -0.0991655 -3.46942e-05)
(0.000193161 -0.0938876 3.67022e-05)
(0.000193202 -0.0938883 -3.6604e-05)
(0.000207164 -0.0940645 3.34074e-05)
(0.000207162 -0.0940655 -3.32037e-05)
(0.000351517 -0.0987471 -0.000163233)
(0.000158106 -0.0989732 -0.000206791)
(0.000333103 -0.0987256 -0.000155116)
(0.000102815 -0.0988319 -0.000204977)
(4.46033e-05 -0.0921571 -0.000185255)
(0.00122285 -0.0908208 -0.000677735)
(5.53079e-05 -0.0920794 -0.000176559)
(0.00116271 -0.090304 -0.00067017)
(-0.00811788 -0.100926 0.000401725)
(0.00766047 -0.105233 0.488529)
(-0.00812873 -0.100865 0.000376873)
(0.00761736 -0.105769 0.488716)
(-0.00563124 -0.0937322 0.000938891)
(0.004267 -0.104845 0.499496)
(-0.00563222 -0.0931807 0.000907342)
(0.00425557 -0.105944 0.499535)
(0.00773184 -0.104239 -0.48812)
(-0.00807917 -0.100927 -0.00044477)
(0.00769741 -0.104727 -0.488268)
(-0.00810129 -0.100946 -0.000424464)
(0.0042669 -0.102889 -0.499415)
(-0.00560243 -0.0945079 -0.000992673)
(0.0042606 -0.103836 -0.499447)
(-0.00561233 -0.0941696 -0.000967688)
(0.000276711 -0.0991526 0.000207704)
(0.000402503 -0.0987514 0.000176271)
(0.000217049 -0.0990797 0.000207658)
(0.00037523 -0.0987561 0.000170331)
(0.00133662 -0.0916525 0.000687321)
(3.8349e-05 -0.0922923 0.000199445)
(0.00128276 -0.0912681 0.000683484)
(3.93567e-05 -0.0922279 0.00019299)
(0.000319601 -0.0989181 4.40019e-05)
(0.00031964 -0.0989183 -4.39026e-05)
(0.000313757 -0.0990033 4.12653e-05)
(0.000313798 -0.0990036 -4.11691e-05)
(0.000170723 -0.0935659 4.2463e-05)
(0.000170771 -0.0935665 -4.23629e-05)
(0.000181071 -0.0937219 3.97395e-05)
(0.000181113 -0.0937225 -3.96417e-05)
(0.000402502 -0.0987519 -0.00017613)
(0.000277066 -0.0991528 -0.000207666)
(0.000375235 -0.0987567 -0.000170193)
(0.000217394 -0.0990799 -0.000207617)
(3.8488e-05 -0.0922937 -0.000199286)
(0.00133634 -0.0916539 -0.000687055)
(3.94904e-05 -0.0922295 -0.000192836)
(0.00128248 -0.0912698 -0.000683223)
(-0.0080755 -0.100926 0.000444415)
(0.00772823 -0.104235 0.488128)
(-0.00809774 -0.100945 0.000424124)
(0.0076938 -0.104724 0.488276)
(-0.00559883 -0.0945079 0.000991932)
(0.00426362 -0.102882 0.499417)
(-0.00560886 -0.0941699 0.000966976)
(0.00425721 -0.103828 0.499448)
(0.00778638 -0.103307 -0.487782)
(-0.00802003 -0.100781 -0.000479512)
(0.00775783 -0.103767 -0.487896)
(-0.00804904 -0.100871 -0.000463078)
(0.00425585 -0.101173 -0.499349)
(-0.00555344 -0.0949238 -0.00103421)
(0.00425214 -0.102005 -0.499374)
(-0.00557099 -0.0947556 -0.00101472)
(0.000387045 -0.0991956 0.000206105)
(0.000464079 -0.0986882 0.000185317)
(0.000336893 -0.0991909 0.000207143)
(0.000432832 -0.0987293 0.00018122)
(0.00143908 -0.0922311 0.000691017)
(4.91251e-05 -0.092376 0.000209351)
(0.00139021 -0.0919714 0.000689727)
(4.19039e-05 -0.092342 0.000204855)
(0.00034206 -0.0987236 4.84806e-05)
(0.000342095 -0.0987238 -4.83736e-05)
(0.000329117 -0.0988256 4.63973e-05)
(0.000329153 -0.0988258 -4.62942e-05)
(0.000156331 -0.0932652 4.69726e-05)
(0.000156391 -0.0932658 -4.68651e-05)
(0.0001624 -0.0934141 4.48691e-05)
(0.000162456 -0.0934147 -4.47655e-05)
(0.000464042 -0.0986885 -0.000185168)
(0.000387268 -0.0991955 -0.000206071)
(0.000432808 -0.0987297 -0.000181075)
(0.000337174 -0.0991909 -0.000207107)
(4.92846e-05 -0.0923771 -0.000209183)
(0.00143876 -0.0922321 -0.000690743)
(4.20517e-05 -0.0923433 -0.000204692)
(0.00138989 -0.0919725 -0.000689457)
(-0.00801623 -0.10078 0.000479128)
(0.0077826 -0.103304 0.48779)
(-0.00804532 -0.10087 0.000462708)
(0.00775401 -0.103764 0.487904)
(-0.00554967 -0.0949233 0.00103342)
(0.00425245 -0.101167 0.49935)
(-0.00556735 -0.0947554 0.00101395)
(0.0042486 -0.101998 0.499375)
(0.00783401 -0.102409 -0.48749)
(-0.00794994 -0.100502 -0.00050729)
(0.00780803 -0.102856 -0.487583)
(-0.0079846 -0.100658 -0.000494152)
(0.0042422 -0.0996392 -0.499292)
(-0.00548935 -0.0950507 -0.00106579)
(0.00423894 -0.100388 -0.499313)
(-0.00551461 -0.0950204 -0.00105131)
(0.000483773 -0.0991047 0.00020303)
(0.000533172 -0.0985408 0.000191263)
(0.000435864 -0.0991667 0.000204705)
(0.000497626 -0.0986258 0.000188612)
(0.001534 -0.0925836 0.000690931)
(7.18437e-05 -0.0923824 0.000215794)
(0.00148874 -0.0924342 0.00069134)
(5.99152e-05 -0.0923891 0.000212921)
(0.000378861 -0.0984798 5.17729e-05)
(0.000378894 -0.0984799 -5.16583e-05)
(0.000358676 -0.098609 5.02593e-05)
(0.000358709 -0.0986091 -5.01483e-05)
(0.000151972 -0.0929602 5.03317e-05)
(0.000152033 -0.0929606 -5.02166e-05)
(0.000152859 -0.0931142 4.87851e-05)
(0.000152919 -0.0931146 -4.86736e-05)
(0.000533128 -0.098541 -0.000191109)
(0.000484012 -0.0991045 -0.000202998)
(0.000497583 -0.098626 -0.00018846)
(0.000436086 -0.0991665 -0.000204672)
(7.19994e-05 -0.0923832 -0.000215617)
(0.00153366 -0.0925841 -0.000690651)
(6.00713e-05 -0.0923901 -0.000212747)
(0.00148841 -0.092435 -0.000691063)
(-0.00794602 -0.100501 0.000506884)
(0.00783012 -0.102406 0.487499)
(-0.00798076 -0.100657 0.000493757)
(0.00780407 -0.102853 0.487592)
(-0.00548549 -0.0950498 0.00106497)
(0.00423873 -0.0996335 0.499294)
(-0.00551084 -0.0950197 0.0010505)
(0.00423528 -0.100381 0.499314)
(0.00787953 -0.101514 -0.48723)
(-0.00786818 -0.1001 -0.000529393)
(0.00785393 -0.101962 -0.487303)
(-0.00790919 -0.100317 -0.000518957)
(0.00422631 -0.0982336 -0.499242)
(-0.00542187 -0.0949482 -0.00109067)
(0.00422399 -0.0989228 -0.499259)
(-0.00545015 -0.095028 -0.00107869)
(0.000582987 -0.0988821 0.000199156)
(0.000611387 -0.0982972 0.000194832)
(0.000533511 -0.0990099 0.000201148)
(0.000571366 -0.0984315 0.000193295)
(0.00162163 -0.0927267 0.00068836)
(0.000104043 -0.0922934 0.000219992)
(0.0015795 -0.0926805 0.000689875)
(8.71171e-05 -0.0923505 0.00021818)
(0.000430114 -0.0981688 5.40871e-05)
(0.000430143 -0.0981688 -5.39662e-05)
(0.000402739 -0.0983335 5.3035e-05)
(0.000402769 -0.0983336 -5.29171e-05)
(0.000157836 -0.0926274 5.27215e-05)
(0.000157899 -0.0926277 -5.26e-05)
(0.000153603 -0.0927981 5.16357e-05)
(0.000153665 -0.0927984 -5.15172e-05)
(0.000611336 -0.0982972 -0.000194673)
(0.000583248 -0.0988817 -0.000199126)
(0.000571318 -0.0984316 -0.000193138)
(0.000533758 -0.0990096 -0.000201117)
(0.000104198 -0.0922939 -0.000219811)
(0.00162128 -0.0927268 -0.000688076)
(8.728e-05 -0.0923512 -0.000218003)
(0.00157915 -0.0926808 -0.000689593)
(-0.00786419 -0.100099 0.000528967)
(0.00787558 -0.101512 0.487239)
(-0.00790525 -0.100315 0.000518542)
(0.00784988 -0.101959 0.487312)
(-0.00541795 -0.0949469 0.00108982)
(0.00422279 -0.0982286 0.499244)
(-0.0054463 -0.0950269 0.00107785)
(0.00422028 -0.0989174 0.49926)
(0.00793111 -0.1006 -0.486994)
(-0.00777534 -0.0995766 -0.000546695)
(0.00790222 -0.101062 -0.487054)
(-0.00782138 -0.0998526 -0.000538539)
(0.00421728 -0.0969099 -0.499198)
(-0.0053497 -0.0946424 -0.0011092)
(0.00421197 -0.0975645 -0.499212)
(-0.00537696 -0.0948172 -0.00110068)
(0.000685211 -0.0985266 0.000194893)
(0.000698365 -0.0979477 0.000196596)
(0.000634187 -0.0987208 0.000197056)
(0.00065377 -0.0981361 0.000195887)
(0.00169939 -0.0926749 0.000684196)
(0.000140833 -0.0920971 0.000222058)
(0.0016633 -0.0927233 0.000686379)
(0.000122096 -0.0922088 0.000221231)
(0.000495933 -0.0977751 5.56074e-05)
(0.00049596 -0.0977751 -5.54815e-05)
(0.000461146 -0.0979831 5.49294e-05)
(0.000461174 -0.0979832 -5.48059e-05)
(0.000173043 -0.0922451 5.4305e-05)
(0.000173105 -0.0922453 -5.41783e-05)
(0.000164425 -0.0924431 5.36017e-05)
(0.000164489 -0.0924433 -5.34775e-05)
(0.000698311 -0.0979475 -0.000196433)
(0.000685487 -0.0985261 -0.000194864)
(0.000653717 -0.098136 -0.000195726)
(0.000634452 -0.0987203 -0.000197026)
(0.000140977 -0.0920973 -0.000221873)
(0.00169898 -0.0926745 -0.000683912)
(0.000122244 -0.0922092 -0.000221047)
(0.0016629 -0.0927231 -0.000686095)
(-0.00777131 -0.0995754 0.000546253)
(0.00792712 -0.100598 0.487003)
(-0.00781738 -0.0998514 0.000538105)
(0.00789813 -0.10106 0.487063)
(-0.00534578 -0.0946408 0.00110833)
(0.00421374 -0.0969057 0.4992)
(-0.00537309 -0.0948157 0.00109981)
(0.00420824 -0.09756 0.499213)
(0.00799067 -0.0996438 -0.486765)
(-0.00766951 -0.0989337 -0.000560115)
(0.00795681 -0.100129 -0.48682)
(-0.00772203 -0.0992702 -0.000553806)
(0.00421157 -0.0956267 -0.499157)
(-0.00527068 -0.0941632 -0.00112265)
(0.00420272 -0.0962655 -0.499169)
(-0.0053006 -0.094423 -0.00111645)
(0.000793009 -0.0980382 0.000190558)
(0.000795801 -0.0974831 0.000197048)
(0.000739055 -0.0982989 0.00019272)
(0.000745876 -0.0977301 0.000196946)
(0.00177026 -0.0924411 0.000679266)
(0.000182599 -0.0917832 0.000222671)
(0.00173706 -0.0925792 0.000681823)
(0.000161262 -0.0919549 0.000222515)
(0.000577107 -0.097284 5.64977e-05)
(0.00057713 -0.097284 -5.63678e-05)
(0.000534602 -0.0975424 5.61169e-05)
(0.000534627 -0.0975424 -5.59889e-05)
(0.000196582 -0.0917935 5.5252e-05)
(0.000196639 -0.0917936 -5.51211e-05)
(0.000183817 -0.0920287 5.48473e-05)
(0.000183876 -0.0920288 -5.47184e-05)
(0.000795741 -0.0974828 -0.000196883)
(0.000793285 -0.0980375 -0.000190532)
(0.000745818 -0.0977299 -0.000196781)
(0.000739327 -0.0982983 -0.000192693)
(0.000182732 -0.0917832 -0.000222483)
(0.00176982 -0.0924404 -0.000678983)
(0.000161399 -0.0919549 -0.000222328)
(0.00173663 -0.0925787 -0.000681539)
(-0.00766546 -0.0989325 0.000559661)
(0.00798667 -0.0996421 0.486774)
(-0.007718 -0.099269 0.000553358)
(0.00795269 -0.100127 0.48683)
(-0.00526677 -0.0941613 0.00112176)
(0.00420804 -0.0956232 0.499158)
(-0.00529673 -0.0944213 0.00111557)
(0.00419897 -0.0962617 0.499171)
(0.00806283 -0.098623 -0.486546)
(-0.00755106 -0.0981683 -0.000570301)
(0.00802237 -0.0991427 -0.486596)
(-0.00761005 -0.0985666 -0.00056553)
(0.00421326 -0.0943461 -0.499118)
(-0.00518781 -0.0935259 -0.00113215)
(0.00420057 -0.094988 -0.499129)
(-0.00521974 -0.0938634 -0.00112782)
(0.000907573 -0.0974145 0.000186333)
(0.000904533 -0.0968943 0.000196535)
(0.00084996 -0.0977435 0.000188423)
(0.000848813 -0.0972047 0.000196876)
(0.00183624 -0.0920359 0.000673838)
(0.000228967 -0.0913424 0.000222225)
(0.00180496 -0.0922592 0.000676571)
(0.000205332 -0.0915787 0.000222555)
(0.000673985 -0.0966819 5.68961e-05)
(0.000674004 -0.0966818 -5.67634e-05)
(0.000623558 -0.0969976 5.67448e-05)
(0.000623578 -0.0969975 -5.66134e-05)
(0.000227561 -0.0912527 5.57059e-05)
(0.000227614 -0.0912527 -5.55721e-05)
(0.000211126 -0.0915348 5.55317e-05)
(0.000211181 -0.0915349 -5.53993e-05)
(0.000904464 -0.0968939 -0.000196369)
(0.000907843 -0.0974137 -0.000186308)
(0.000848748 -0.0972043 -0.00019671)
(0.000850229 -0.0977427 -0.000188398)
(0.000229089 -0.0913421 -0.000222036)
(0.00183577 -0.0920349 -0.000673557)
(0.000205459 -0.0915786 -0.000222367)
(0.0018045 -0.0922583 -0.000676289)
(-0.00754701 -0.0981671 0.000569837)
(0.00805885 -0.0986214 0.486556)
(-0.00760602 -0.0985653 0.000565071)
(0.00801826 -0.099141 0.486606)
(-0.00518393 -0.0935239 0.00113125)
(0.00420975 -0.0943431 0.49912)
(-0.0052159 -0.0938614 0.00112692)
(0.00419683 -0.0949848 0.499131)
(0.00815 -0.0975171 -0.486331)
(-0.00741883 -0.0972743 -0.000577815)
(0.00810179 -0.0980818 -0.486377)
(-0.00748486 -0.0977377 -0.000574312)
(0.00422303 -0.0930341 -0.499082)
(-0.00510021 -0.0927385 -0.00113846)
(0.00420609 -0.0936957 -0.499091)
(-0.00513447 -0.0931505 -0.00113564)
(0.00103096 -0.0966498 0.00018234)
(0.00102581 -0.0961712 0.000195326)
(0.000968663 -0.0970501 0.000184301)
(0.000963637 -0.0965501 0.000195986)
(0.00190031 -0.0914641 0.000668257)
(0.000280128 -0.0907653 0.000221018)
(0.00186969 -0.0917703 0.000671038)
(0.000254038 -0.091071 0.000221697)
(0.000787218 -0.0959549 5.69184e-05)
(0.000787232 -0.0959547 -5.6784e-05)
(0.000728508 -0.0963347 5.69422e-05)
(0.000728524 -0.0963346 -5.68086e-05)
(0.000265983 -0.0906041 5.57804e-05)
(0.000266033 -0.090604 -5.5645e-05)
(0.000245784 -0.0909424 5.57835e-05)
(0.000245836 -0.0909423 -5.56488e-05)
(0.00102573 -0.0961707 -0.00019516)
(0.00103122 -0.0966489 -0.000182318)
(0.000963562 -0.0965496 -0.000195819)
(0.000968925 -0.0970492 -0.000184278)
(0.00028024 -0.0907648 -0.000220829)
(0.00189982 -0.0914629 -0.000667979)
(0.000254155 -0.0910706 -0.000221508)
(0.0018692 -0.0917691 -0.000670759)
(-0.00741481 -0.097273 0.000577344)
(0.00814604 -0.0975158 0.486341)
(-0.00748085 -0.0977365 0.000573845)
(0.00809769 -0.0980804 0.486387)
(-0.00509637 -0.0927364 0.00113755)
(0.00421954 -0.0930317 0.499083)
(-0.00513066 -0.0931483 0.00113473)
(0.00420237 -0.093693 0.499093)
(0.00825405 -0.0963063 -0.486117)
(-0.00727152 -0.0962433 -0.000583119)
(0.00819725 -0.0969259 -0.486161)
(-0.00734529 -0.0967764 -0.000580666)
(0.00424145 -0.0916604 -0.499047)
(-0.00500716 -0.0918034 -0.00114216)
(0.00422009 -0.0923565 -0.499055)
(-0.00504419 -0.0922892 -0.00114058)
(0.00116534 -0.0957366 0.000178661)
(0.00116102 -0.0953028 0.000193622)
(0.00109725 -0.0962122 0.000180457)
(0.00109169 -0.0957557 0.000194508)
(0.0019645 -0.0907268 0.0006627)
(0.000336433 -0.0900418 0.000219265)
(0.00193357 -0.0911158 0.000665453)
(0.000307705 -0.090422 0.000220195)
(0.000917634 -0.0950889 5.66538e-05)
(0.000917643 -0.0950887 -5.65186e-05)
(0.000850219 -0.09554 5.68113e-05)
(0.00085023 -0.0955398 -5.66765e-05)
(0.000312054 -0.0898302 5.55635e-05)
(0.000312101 -0.08983 -5.54273e-05)
(0.000287989 -0.0902333 5.57028e-05)
(0.000288038 -0.0902332 -5.55669e-05)
(0.00116094 -0.0953023 -0.000193456)
(0.00116559 -0.0957356 -0.00017864)
(0.00109161 -0.0957552 -0.000194342)
(0.0010975 -0.0962112 -0.000180436)
(0.000336535 -0.0900411 -0.000219076)
(0.00196399 -0.0907253 -0.000662427)
(0.000307811 -0.0904214 -0.000220006)
(0.00193307 -0.0911144 -0.000665178)
(-0.00726753 -0.0962421 0.000582644)
(0.00825012 -0.0963052 0.486127)
(-0.0073413 -0.0967752 0.000580193)
(0.00819318 -0.0969246 0.486171)
(-0.00500338 -0.0918012 0.00114125)
(0.00423799 -0.0916584 0.499048)
(-0.00504042 -0.092287 0.00113967)
(0.00421641 -0.0923543 0.499057)
(0.00837632 -0.0949716 -0.4859)
(-0.00710787 -0.095066 -0.000586581)
(0.00831022 -0.0956554 -0.485941)
(-0.00718994 -0.0956735 -0.000585002)
(0.0042685 -0.0901976 -0.499012)
(-0.00490771 -0.0907186 -0.0011437)
(0.00424252 -0.0909415 -0.49902)
(-0.00494777 -0.0912797 -0.00114315)
(0.00131264 -0.0946662 0.000175333)
(0.0013115 -0.0942778 0.000191565)
(0.00123789 -0.0952216 0.00017695)
(0.00123439 -0.0948105 0.00019261)
(0.00203033 -0.0898219 0.000657266)
(0.000398269 -0.0891617 0.000217118)
(0.00199844 -0.0902952 0.000659949)
(0.000366715 -0.0896215 0.000218229)
(0.00106603 -0.0940702 5.61689e-05)
(0.00106603 -0.0940699 -5.60339e-05)
(0.000989523 -0.0945993 5.64291e-05)
(0.00098953 -0.0945991 -5.62939e-05)
(0.00036596 -0.0889142 5.51213e-05)
(0.000366004 -0.0889139 -5.49853e-05)
(0.00033794 -0.0893904 5.53662e-05)
(0.000337986 -0.0893902 -5.52299e-05)
(0.00131141 -0.0942772 -0.0001914)
(0.00131287 -0.0946652 -0.000175314)
(0.0012343 -0.0948099 -0.000192445)
(0.00123813 -0.0952205 -0.00017693)
(0.00039836 -0.0891608 -0.000216931)
(0.00202981 -0.0898202 -0.000656997)
(0.000366811 -0.0896207 -0.000218041)
(0.00199791 -0.0902936 -0.000659678)
(-0.00710392 -0.0950647 0.000586105)
(0.00837242 -0.0949706 0.48591)
(-0.00718598 -0.0956723 0.000584527)
(0.00830619 -0.0956544 0.485951)
(-0.00490398 -0.0907163 0.00114279)
(0.00426507 -0.090196 0.499014)
(-0.00494406 -0.0912774 0.00114224)
(0.00423886 -0.0909396 0.499021)
(0.00851818 -0.0934944 -0.485683)
(-0.00692617 -0.0937308 -0.000588498)
(0.00844224 -0.0942518 -0.485724)
(-0.00701758 -0.0944187 -0.000587659)
(0.00430478 -0.0886199 -0.498978)
(-0.00480107 -0.089479 -0.0011434)
(0.0042743 -0.0894243 -0.498986)
(-0.004845 -0.0901183 -0.00114373)
(0.00147434 -0.0934284 0.000172365)
(0.00147839 -0.093084 0.000189256)
(0.00139218 -0.0940687 0.000173803)
(0.00139293 -0.0937026 0.000190418)
(0.00209871 -0.0887449 0.000651994)
(0.000465967 -0.0881137 0.000214682)
(0.0020654 -0.0893049 0.000654594)
(0.000431415 -0.0886588 0.000215927)
(0.00123316 -0.0928844 5.55129e-05)
(0.00123316 -0.0928841 -5.53786e-05)
(0.00114719 -0.0934988 5.58536e-05)
(0.00114719 -0.0934986 -5.57189e-05)
(0.000427873 -0.0878394 5.45024e-05)
(0.000427914 -0.0878391 -5.43672e-05)
(0.000395809 -0.088397 5.48306e-05)
(0.000395852 -0.0883968 -5.46949e-05)
(0.00147828 -0.0930832 -0.000189093)
(0.00147457 -0.0934273 -0.000172347)
(0.00139283 -0.0937019 -0.000190254)
(0.00139241 -0.0940677 -0.000173784)
(0.000466048 -0.0881127 -0.000214498)
(0.00209817 -0.0887431 -0.000651729)
(0.000431501 -0.0886579 -0.000215742)
(0.00206486 -0.0893031 -0.000654327)
(-0.00692226 -0.0937296 0.000588022)
(0.00851431 -0.0934937 0.485693)
(-0.00701367 -0.0944175 0.000587183)
(0.00843825 -0.0942509 0.485734)
(-0.0047974 -0.0894767 0.0011425)
(0.00430137 -0.0886187 0.49898)
(-0.00484134 -0.090116 0.00114283)
(0.00427068 -0.0894229 0.498987)
(0.00868015 -0.0918571 -0.485464)
(-0.00672508 -0.0922256 -0.000589088)
(0.00859413 -0.0926967 -0.485503)
(-0.00682622 -0.0930001 -0.000588885)
(0.00434999 -0.0869038 -0.498945)
(-0.0046863 -0.0880767 -0.00114152)
(0.00431494 -0.0877802 -0.498952)
(-0.00473416 -0.0887985 -0.00114262)
(0.00165165 -0.0920124 0.000169741)
(0.00166259 -0.0917091 0.000186756)
(0.00156157 -0.0927432 0.00017101)
(0.00156836 -0.0924198 0.000188008)
(0.00217036 -0.0874899 0.000646882)
(0.00053988 -0.0868867 0.00021202)
(0.00213531 -0.0881397 0.000649404)
(0.000502155 -0.0875228 0.000213373)