/*--------------------------------*- C++ -*----------------------------------*\
  =========                 |
  \\      /  F ield         | OpenFOAM: The Open Source CFD Toolbox
   \\    /   O peration     | Website:  https://openfoam.org
    \\  /    A nd           | Version:  9
     \\/     M anipulation  |
\*---------------------------------------------------------------------------*/
FoamFile
{
    format      ascii;
    class       surfaceScalarField;
    location    "3.65";
    object      phi;
}
// * * * * * * * * * * * * * * * * * * * * * * * * * * * * * * * * * * * * * //

dimensions      [0 3 -1 0 0 0 0];

internalField   nonuniform List<scalar> 
104044
(
6.4098e-07
-6.84248e-05
-2.34776e-06
6.68872e-05
3.24443e-06
-4.50268e-05
-9.95104e-07
-2.46726e-07
4.72077e-05
-2.9813e-07
4.27123e-07
-4.29459e-06
4.34707e-06
9.85094e-08
-1.73643e-07
-9.19433e-07
-9.03211e-08
-7.99923e-05
7.77348e-05
-3.52694e-05
6.3779e-08
3.41202e-05
-2.49656e-08
1.13505e-08
-1.4023e-08
-4.98959e-05
-2.93562e-06
5.00821e-05
2.51673e-06
-5.20564e-05
-1.84353e-06
6.78854e-10
5.22401e-05
1.64515e-06
-7.94753e-09
-2.44416e-06
1.79673e-06
-1.6946e-06
-2.32211e-10
1.12011e-06
-7.05934e-09
-5.03825e-05
4.75178e-05
-5.55713e-05
-3.84886e-11
5.37208e-05
-1.10663e-08
-2.68378e-09
1.24506e-12
-5.30519e-05
-1.10028e-06
5.33229e-05
8.30015e-07
-5.30527e-05
-1.10048e-06
-6.72493e-10
5.33235e-05
8.30328e-07
6.71638e-13
-1.21036e-06
4.88631e-07
-1.21055e-06
2.33195e-10
4.88908e-07
5.5445e-13
-5.62462e-05
5.51459e-05
-5.62471e-05
4.4126e-11
5.51466e-05
1.8838e-12
2.68485e-09
1.40391e-08
-5.20583e-05
-1.84342e-06
5.22418e-05
1.6452e-06
-4.98981e-05
-2.93523e-06
2.46736e-07
5.00841e-05
2.51662e-06
7.95299e-09
-1.69469e-06
1.12029e-06
-2.44394e-06
1.73655e-07
1.79661e-06
7.07206e-09
-5.55733e-05
5.37228e-05
-5.03863e-05
-6.37411e-08
4.75219e-05
1.10711e-08
-1.13362e-08
-6.40936e-07
-4.50273e-05
-9.95706e-07
4.7208e-05
-2.97277e-07
-6.84195e-05
-2.3472e-06
6.68822e-05
3.24361e-06
-4.27088e-07
9.82388e-08
-9.18834e-07
-4.29367e-06
4.3459e-06
9.01939e-08
-3.52737e-05
3.41241e-05
-7.99809e-05
7.77239e-05
2.49141e-08
3.32665e-07
-6.52471e-05
-2.92142e-06
6.38108e-05
4.02509e-06
-4.85679e-05
2.30298e-06
-9.14532e-08
4.9405e-05
-2.71599e-06
4.85209e-07
-2.57478e-06
3.72965e-06
7.93413e-07
-1.65774e-07
-1.50261e-06
-6.4653e-07
-7.55117e-05
7.32368e-05
-3.4358e-05
3.47585e-07
3.56668e-05
-3.51675e-07
2.0401e-07
-8.22168e-09
-5.01512e-05
-1.73449e-06
5.00648e-05
1.73764e-06
-5.22445e-05
-1.52984e-06
-2.35958e-09
5.20259e-05
1.74265e-06
-1.35469e-08
-2.4849e-06
2.26363e-06
-1.90048e-06
7.09378e-11
1.88243e-06
1.04482e-08
-4.52382e-05
4.38409e-05
-5.18195e-05
-2.46634e-09
5.03026e-05
-1.35942e-09
-5.95706e-10
3.93718e-12
-5.32754e-05
-1.28446e-06
5.30601e-05
1.49743e-06
-5.3276e-05
-1.28436e-06
2.37061e-09
5.30606e-05
1.4974e-06
2.09479e-12
-1.35433e-06
1.40187e-06
-1.3543e-06
-6.08476e-11
1.4019e-06
1.95046e-12
-5.37909e-05
5.2504e-05
-5.37916e-05
2.47633e-09
5.25048e-05
1.11976e-12
6.00793e-10
8.24628e-09
-5.22461e-05
-1.5296e-06
5.20272e-05
1.74257e-06
-5.01528e-05
-1.73452e-06
9.14716e-08
5.00662e-05
1.73791e-06
1.35666e-08
-1.90016e-06
1.88232e-06
-2.48466e-06
1.65791e-07
2.26368e-06
-1.0418e-08
-5.18219e-05
5.03052e-05
-4.52425e-05
-3.47487e-07
4.38451e-05
1.37941e-09
-2.03942e-07
-3.32736e-07
-4.85678e-05
2.30174e-06
4.94047e-05
-2.71443e-06
-6.52424e-05
-2.92046e-06
6.38064e-05
4.02371e-06
-4.85227e-07
7.92532e-07
-1.50134e-06
-2.57399e-06
3.72853e-06
6.46141e-07
-3.43612e-05
3.56694e-05
-7.55014e-05
7.3227e-05
3.51428e-07
1.57838e-08
-6.2581e-05
-3.20712e-06
6.15164e-05
4.25593e-06
-5.00033e-05
3.55376e-06
3.27469e-08
5.04992e-05
-4.06657e-06
1.70423e-07
-3.06077e-06
4.12013e-06
3.09314e-06
-2.54502e-08
-3.49555e-06
-1.21409e-06
-7.11046e-05
6.91116e-05
-3.73612e-05
5.80338e-07
3.91205e-05
-9.28572e-07
4.70211e-07
4.12837e-08
-4.99803e-05
-7.58442e-07
4.99615e-05
7.68675e-07
-5.17227e-05
-7.97153e-07
-6.14923e-10
5.14478e-05
1.11397e-06
8.08455e-09
-1.13602e-06
1.18697e-06
-1.10002e-06
-3.1394e-09
1.41437e-06
5.63877e-08
-4.31448e-05
4.29103e-05
-4.9235e-05
2.9224e-10
4.84939e-05
3.03106e-08
-2.09263e-09
1.3197e-11
-5.27434e-05
-7.05002e-07
5.24193e-05
1.02845e-06
-5.27439e-05
-7.04977e-07
6.14051e-10
5.24198e-05
1.02848e-06
3.86395e-12
-9.69578e-07
1.28309e-06
-9.69516e-07
3.15287e-09
1.28306e-06
9.11573e-13
-5.15324e-05
5.08276e-05
-5.15332e-05
-2.81583e-10
5.08285e-05
1.50074e-12
2.10367e-09
-4.1251e-08
-5.1724e-05
-7.97147e-07
5.14489e-05
1.11403e-06
-4.99815e-05
-7.58678e-07
-3.26783e-08
4.99625e-05
7.69076e-07
-8.05058e-09
-1.09991e-06
1.41437e-06
-1.13619e-06
2.54648e-08
1.18738e-06
-5.63355e-08
-4.92377e-05
4.84966e-05
-4.31487e-05
-5.802e-07
4.29139e-05
-3.02688e-08
-4.70091e-07
-1.59482e-08
-5.00028e-05
3.55235e-06
5.04985e-05
-4.0648e-06
-6.25769e-05
-3.20589e-06
6.15126e-05
4.25425e-06
-1.70544e-07
3.09181e-06
-3.49387e-06
-3.05964e-06
4.1186e-06
1.21342e-06
-3.7363e-05
3.91218e-05
-7.10955e-05
6.9103e-05
9.28045e-07
-2.60782e-07
-6.06091e-05
-3.33226e-06
5.98184e-05
4.38371e-06
-5.0917e-05
3.92432e-06
9.5925e-08
5.1285e-05
-4.64901e-06
-1.28162e-07
-3.24691e-06
4.28238e-06
3.74869e-06
7.74919e-08
-4.37214e-06
-1.69513e-06
-6.73171e-05
6.568e-05
-4.07519e-05
7.45122e-07
4.2236e-05
-1.45245e-06
6.64863e-07
1.10732e-07
-5.00193e-05
-3.62361e-07
5.01322e-05
2.34723e-07
-5.12427e-05
-4.30872e-07
1.06517e-08
5.11063e-05
6.67403e-07
7.43648e-08
-5.04346e-07
4.49673e-07
-5.75498e-07
4.09975e-09
8.50857e-07
1.15655e-07
-4.29862e-05
4.32533e-05
-4.79984e-05
1.07735e-08
4.76724e-05
8.45881e-08
4.64368e-09
5.57254e-12
-5.21448e-05
-4.0496e-07
5.19242e-05
6.36187e-07
-5.21452e-05
-4.04963e-07
-1.06234e-08
5.19246e-05
6.36206e-07
2.51987e-12
-5.17223e-07
7.9588e-07
-5.17214e-07
-4.07856e-09
7.95881e-07
9.78703e-12
-5.03151e-05
4.99209e-05
-5.03159e-05
-1.07433e-08
4.99217e-05
1.82991e-12
-4.62624e-09
-1.10635e-07
-5.12437e-05
-4.30935e-07
5.11072e-05
6.67504e-07
-5.00201e-05
-3.62544e-07
-9.59686e-08
5.01328e-05
2.35216e-07
-7.42899e-08
-5.7554e-07
8.50952e-07
-5.04555e-07
-7.75066e-08
4.50153e-07
-1.15595e-07
-4.80009e-05
4.76748e-05
-4.29895e-05
-7.44887e-07
4.32562e-05
-8.45205e-08
-6.64651e-07
2.60519e-07
-5.09162e-05
3.92275e-06
5.1284e-05
-4.64711e-06
-6.06055e-05
-3.33084e-06
5.98151e-05
4.3818e-06
1.27945e-07
3.74721e-06
-4.37032e-06
-3.24554e-06
4.28055e-06
1.6942e-06
-4.07527e-05
4.22363e-05
-6.73091e-05
6.56724e-05
1.45165e-06
-4.79182e-07
-5.91366e-05
-3.38935e-06
5.85355e-05
4.46971e-06
-5.1599e-05
4.04361e-06
1.17114e-07
5.18677e-05
-4.9086e-06
-3.73404e-07
-3.33012e-06
4.38532e-06
3.95965e-06
1.08126e-07
-4.75523e-06
-2.07345e-06
-6.42278e-05
6.29119e-05
-4.35236e-05
8.44747e-07
4.4649e-05
-1.87791e-06
7.94079e-07
1.79602e-07
-5.02854e-05
-2.23388e-07
5.04683e-05
-2.19628e-08
-5.10301e-05
-2.41254e-07
2.5147e-08
5.10003e-05
4.2549e-07
1.44892e-07
-2.69597e-07
7.96062e-08
-3.19235e-07
1.83089e-08
5.21989e-07
1.59773e-07
-4.36379e-05
4.40994e-05
-4.74751e-05
2.62688e-08
4.73673e-05
1.39929e-07
1.80153e-08
-7.05094e-12
-5.17583e-05
-2.73109e-07
5.16349e-05
4.2169e-07
-5.17587e-05
-2.73125e-07
-2.51957e-08
5.16352e-05
4.21741e-07
1.41472e-11
-3.23963e-07
5.08135e-07
-3.23966e-07
-1.82594e-08
5.08165e-07
-7.80309e-12
-4.96149e-05
4.9368e-05
-4.96156e-05
-2.64249e-08
4.93689e-05
4.67279e-11
-1.78518e-08
-1.79465e-07
-5.10309e-05
-2.41442e-07
5.1001e-05
4.25592e-07
-5.02858e-05
-2.23511e-07
-1.17156e-07
5.04686e-05
-2.15626e-08
-1.44805e-07
-3.19273e-07
5.22089e-07
-2.69847e-07
-1.08136e-07
8.01717e-08
-1.60169e-07
-4.74773e-05
4.73696e-05
-4.36405e-05
-8.44608e-07
4.41015e-05
-1.39554e-07
-7.93716e-07
4.78832e-07
-5.15981e-05
4.04197e-06
5.18667e-05
-4.9066e-06
-5.91335e-05
-3.38779e-06
5.85325e-05
4.4676e-06
3.73107e-07
3.95805e-06
-4.75331e-06
-3.32857e-06
4.38327e-06
2.07227e-06
-4.35238e-05
4.46489e-05
-6.42208e-05
6.29053e-05
1.87691e-06
-6.45119e-07
-5.80091e-05
-3.41781e-06
5.75388e-05
4.53322e-06
-5.20936e-05
4.07818e-06
1.1674e-07
5.22832e-05
-5.02965e-06
-5.62342e-07
-3.36876e-06
4.45746e-06
4.02359e-06
1.18148e-07
-4.92996e-06
-2.36008e-06
-6.17477e-05
6.06899e-05
-4.56003e-05
8.97866e-07
4.64206e-05
-2.20455e-06
8.67731e-07
2.34905e-07
-5.06489e-05
-2.13343e-07
5.08306e-05
-8.65532e-08
-5.10057e-05
-1.35852e-07
3.90579e-08
5.10365e-05
3.00846e-07
2.06717e-07
-2.07217e-07
-6.19737e-08
-1.7871e-07
3.16275e-08
3.48429e-07
1.90685e-07
-4.45837e-05
4.50775e-05
-4.73303e-05
3.85545e-08
4.73466e-05
1.76301e-07
3.45852e-08
4.17198e-11
-5.15484e-05
-1.99357e-07
5.14901e-05
2.96688e-07
-5.15487e-05
-1.99854e-07
-3.84983e-08
5.14903e-05
2.96738e-07
6.1036e-11
-2.3021e-07
3.48267e-07
-2.30064e-07
-3.16335e-08
3.48304e-07
-1.33026e-09
-4.91719e-05
4.90124e-05
-4.91721e-05
-4.27485e-08
4.90136e-05
5.38567e-10
-3.26771e-08
-2.34467e-07
-5.10063e-05
-1.357e-07
5.1037e-05
3.00939e-07
-5.06492e-05
-2.12798e-07
-1.16865e-07
5.08306e-05
-8.61838e-08
-2.06675e-07
-1.78758e-07
3.48528e-07
-2.07596e-07
-1.18117e-07
-6.16126e-08
-1.94055e-07
-4.73324e-05
4.73481e-05
-4.45864e-05
-8.98882e-07
4.50784e-05
-1.74314e-07
-8.6683e-07
6.44649e-07
-5.20927e-05
4.07666e-06
5.22821e-05
-5.02762e-06
-5.80064e-05
-3.41603e-06
5.75361e-05
4.53094e-06
5.62005e-07
4.02184e-06
-4.92792e-06
-3.36709e-06
4.45525e-06
2.3583e-06
-4.56004e-05
4.64198e-05
-6.17417e-05
6.06839e-05
2.20351e-06
-7.6801e-07
-5.71206e-05
-3.42851e-06
5.67418e-05
4.5753e-06
-5.24402e-05
4.0792e-06
1.02624e-07
5.25698e-05
-5.0794e-06
-7.03901e-07
-3.38648e-06
4.50861e-06
4.03637e-06
1.09731e-07
-5.00701e-06
-2.56894e-06
-5.97508e-05
5.88912e-05
-4.71056e-05
9.21853e-07
4.7694e-05
-2.44731e-06
9.04038e-07
2.75998e-07
-5.10048e-05
-2.48652e-07
5.11705e-05
-9.04594e-08
-5.10844e-05
-8.22684e-08
5.18305e-08
5.11442e-05
2.46674e-07
2.54397e-07
-2.25394e-07
-9.34256e-08
-1.02932e-07
4.48968e-08
2.64515e-07
2.16966e-07
-4.55516e-05
4.60078e-05
-4.74005e-05
5.25545e-08
4.74826e-05
2.0457e-07
4.77934e-08
1.3912e-11
-5.14554e-05
-1.4919e-07
5.14383e-05
2.18101e-07
-5.14556e-05
-1.49267e-07
-5.17611e-08
5.14385e-05
2.18158e-07
4.64916e-11
-1.70576e-07
2.50101e-07
-1.70379e-07
-4.5028e-08
2.50156e-07
-5.29753e-11
-4.88888e-05
4.87922e-05
-4.88892e-05
-5.29675e-08
4.87929e-05
8.25429e-10
-4.51338e-08
-2.75828e-07
-5.10849e-05
-8.23671e-08
5.11446e-05
2.46761e-07
-5.10048e-05
-2.48699e-07
-1.02695e-07
5.11704e-05
-9.00708e-08
-2.54296e-07
-1.03206e-07
2.64616e-07
-2.25748e-07
-1.09718e-07
-9.30397e-08
-2.17159e-07
-4.74022e-05
4.7484e-05
-4.55533e-05
-9.21626e-07
4.6009e-05
-2.02487e-07
-9.03093e-07
7.6756e-07
-5.24392e-05
4.07735e-06
5.25688e-05
-5.07718e-06
-5.71181e-05
-3.42679e-06
5.67394e-05
4.57297e-06
7.03516e-07
4.03452e-06
-5.00486e-06
-3.38472e-06
4.50628e-06
2.56746e-06
-4.71051e-05
4.76934e-05
-5.97453e-05
5.8886e-05
2.44612e-06
-8.57894e-07
-5.63992e-05
-3.42785e-06
5.60844e-05
4.60054e-06
-5.26757e-05
4.0636e-06
8.26001e-08
5.27589e-05
-5.0873e-06
-8.08572e-07
-3.39277e-06
4.54399e-06
4.03094e-06
9.21197e-08
-5.03753e-06
-2.71782e-06
-5.81225e-05
5.74125e-05
-4.81838e-05
9.26742e-07
4.86029e-05
-2.62409e-06
9.1703e-07
3.04501e-07
-5.13224e-05
-2.9898e-07
5.14613e-05
-6.18424e-08
-5.12096e-05
-6.00718e-08
6.32847e-08
5.12782e-05
2.32731e-07
2.88828e-07
-2.71249e-07
-7.73364e-08
-6.76467e-08
5.72275e-08
2.33805e-07
2.34732e-07
-4.6429e-05
4.68221e-05
-4.75818e-05
6.3139e-08
4.76934e-05
2.24552e-07
5.76579e-08
2.30281e-11
-5.14347e-05
-1.14376e-07
5.14407e-05
1.71589e-07
-5.14349e-05
-1.14418e-07
-6.32122e-08
5.14409e-05
1.71635e-07
1.99516e-11
-1.28847e-07
1.89677e-07
-1.2889e-07
-5.71616e-08
1.89727e-07
2.27253e-11
-4.8721e-05
4.86697e-05
-4.87216e-05
-6.30711e-08
4.86702e-05
1.93826e-11
-5.75714e-08
-3.0432e-07
-5.12099e-05
-6.01684e-08
5.12784e-05
2.32791e-07
-5.13223e-05
-2.99005e-07
-8.26924e-08
5.14611e-05
-6.14903e-08
-2.88653e-07
-6.77499e-08
2.33877e-07
-2.7129e-07
-9.22006e-08
-7.69726e-08
-2.34595e-07
-4.75831e-05
4.76945e-05
-4.64301e-05
-9.26457e-07
4.68229e-05
-2.24409e-07
-9.16749e-07
8.57408e-07
-5.26747e-05
4.06166e-06
5.27579e-05
-5.08499e-06
-5.63969e-05
-3.42606e-06
5.60822e-05
4.59814e-06
8.08106e-07
4.02908e-06
-5.0353e-06
-3.39092e-06
4.54157e-06
2.71623e-06
-4.81832e-05
4.86021e-05
-5.81177e-05
5.74078e-05
2.62257e-06
-9.21825e-07
-5.57944e-05
-3.4149e-06
5.55237e-05
4.60739e-06
-5.28235e-05
4.02951e-06
6.11696e-08
5.28687e-05
-5.05774e-06
-8.83694e-07
-3.38495e-06
4.55864e-06
4.00504e-06
7.11572e-08
-5.02449e-06
-2.81751e-06
-5.67727e-05
5.61753e-05
-4.89477e-05
9.19741e-07
4.92399e-05
-2.74518e-06
9.15068e-07
3.22346e-07
-5.1585e-05
-3.48421e-07
5.16964e-05
-2.41595e-08
-5.13454e-05
-5.71472e-08
7.25597e-08
5.14102e-05
2.42124e-07
3.11425e-07
-3.21307e-07
-4.26454e-08
-5.63069e-08
6.75221e-08
2.32991e-07
2.4599e-07
-4.71772e-05
4.75025e-05
-4.78089e-05
7.13159e-08
4.79264e-05
2.38661e-07
6.68279e-08
2.70557e-11
-5.14531e-05
-9.26082e-08
5.14699e-05
1.48351e-07
-5.14532e-05
-9.26426e-08
-7.24783e-08
5.147e-05
1.48386e-07
2.49245e-11
-1.00821e-07
1.55918e-07
-1.0086e-07
-6.74455e-08
1.55958e-07
2.74476e-11
-4.86357e-05
4.86144e-05
-4.86362e-05
-7.12385e-08
4.86148e-05
2.51838e-11
-6.67551e-08
-3.22155e-07
-5.13456e-05
-5.72231e-08
5.14103e-05
2.42151e-07
-5.15848e-05
-3.48442e-07
-6.12835e-08
5.16961e-05
-2.37601e-08
-3.11242e-07
-5.6393e-08
2.33035e-07
-3.21318e-07
-7.12585e-08
-4.23272e-08
-2.45843e-07
-4.78098e-05
4.79272e-05
-4.71779e-05
-9.19458e-07
4.7503e-05
-2.3852e-07
-9.14787e-07
9.21316e-07
-5.28225e-05
4.02752e-06
5.28678e-05
-5.05537e-06
-5.57923e-05
-3.41308e-06
5.55218e-05
4.60494e-06
8.832e-07
4.00311e-06
-5.02218e-06
-3.38305e-06
4.55616e-06
2.81584e-06
-4.89469e-05
4.92391e-05
-5.67683e-05
5.61711e-05
2.74356e-06
-9.666e-07
-5.52694e-05
-3.39376e-06
5.50281e-05
4.60162e-06
-5.28988e-05
3.9831e-06
4.15233e-08
5.29113e-05
-5.00373e-06
-9.37335e-07
-3.36972e-06
4.56135e-06
3.96691e-06
5.05857e-08
-4.98487e-06
-2.88055e-06
-5.56317e-05
5.51185e-05
-4.94758e-05
9.06322e-07
4.9672e-05
-2.82608e-06
9.04982e-07
3.31247e-07
-5.17907e-05
-3.96444e-07
5.18725e-05
2.49312e-08
-5.14692e-05
-6.56684e-08
7.9697e-08
5.15218e-05
2.64643e-07
3.24639e-07
-3.69654e-07
1.25571e-09
-5.98723e-08
7.56549e-08
2.49881e-07
2.52133e-07
-4.77905e-05
4.80483e-05
-4.80399e-05
7.73428e-08
4.8149e-05
2.47273e-07
7.38827e-08
3.01188e-11
-5.14878e-05
-8.04311e-08
5.15049e-05
1.43033e-07
-5.14879e-05
-8.04613e-08
-7.96083e-08
5.15049e-05
1.43059e-07
2.83875e-11
-8.4644e-08
1.42363e-07
-8.46777e-08
-7.55704e-08
1.42394e-07
3.07175e-11
-4.86036e-05
4.86005e-05
-4.86039e-05
-7.72592e-08
4.86008e-05
2.89118e-11
-7.38027e-08
-3.31052e-07
-5.14692e-05
-6.57239e-08
5.15218e-05
2.64644e-07
-5.17904e-05
-3.96478e-07
-4.16532e-08
5.18722e-05
2.52822e-08
-3.24448e-07
-5.99363e-08
2.49894e-07
-3.69672e-07
-5.07066e-08
1.62639e-09
-2.51979e-07
-4.80406e-05
4.81496e-05
-4.7791e-05
-9.06045e-07
4.80485e-05
-2.47123e-07
-9.04704e-07
9.66076e-07
-5.28978e-05
3.98105e-06
5.29104e-05
-5.0013e-06
-5.52675e-05
-3.3919e-06
5.50264e-05
4.59914e-06
9.36823e-07
3.96492e-06
-4.9825e-06
-3.36777e-06
4.55883e-06
2.87882e-06
-4.94749e-05
4.96711e-05
-5.56277e-05
5.51146e-05
2.82439e-06
-9.96515e-07
-5.4797e-05
-3.36453e-06
5.4574e-05
4.58401e-06
-5.29107e-05
3.92534e-06
2.50022e-08
5.28935e-05
-4.92968e-06
-9.73459e-07
-3.34303e-06
4.54762e-06
3.91345e-06
3.2626e-08
-4.91898e-06
-2.91424e-06
-5.46474e-05
5.41971e-05
-4.98243e-05
8.89072e-07
4.99463e-05
-2.87199e-06
8.8919e-07
3.32946e-07
-5.19339e-05
-4.42343e-07
5.19788e-05
8.95259e-08
-5.15654e-05
-8.07891e-08
8.4876e-08
5.15996e-05
2.94578e-07
3.29453e-07
-4.16726e-07
5.84775e-08
-7.19211e-08
8.17035e-08
2.76091e-07
2.54186e-07
-4.82697e-05
4.84622e-05
-4.82494e-05
8.14091e-08
4.83414e-05
2.51094e-07
7.88176e-08
3.25231e-11
-5.15189e-05
-7.70274e-08
5.15286e-05
1.52206e-07
-5.15189e-05
-7.70525e-08
-8.47824e-08
5.15286e-05
1.52223e-07
3.10866e-11
-7.69465e-08
1.44588e-07
-7.69734e-08
-8.16132e-08
1.44609e-07
3.31789e-11
-4.86023e-05
4.86067e-05
-4.86026e-05
-8.13212e-08
4.86069e-05
3.17233e-11
-7.87325e-08
-3.32742e-07
-5.15653e-05
-8.08331e-08
5.15995e-05
2.94561e-07
-5.19335e-05
-4.42358e-07
-2.515e-08
5.19784e-05
8.99437e-08
-3.29252e-07
-7.19682e-08
2.76081e-07
-4.16752e-07
-3.27663e-08
5.89384e-08
-2.54028e-07
-4.82498e-05
4.83417e-05
-4.82698e-05
-8.88798e-07
4.84622e-05
-2.50939e-07
-8.88917e-07
9.95983e-07
-5.29098e-05
3.92325e-06
5.28927e-05
-4.92723e-06
-5.47953e-05
-3.36265e-06
5.45724e-05
4.58151e-06
9.72936e-07
3.91142e-06
-4.91658e-06
-3.34105e-06
4.54507e-06
2.91247e-06
-4.98234e-05
4.99454e-05
-5.46438e-05
5.41937e-05
2.87025e-06
-1.01498e-06
-5.43564e-05
-3.32942e-06
5.41429e-05
4.55786e-06
-5.28648e-05
3.8564e-06
1.10049e-08
5.282e-05
-4.83756e-06
-9.97422e-07
-3.31223e-06
4.52733e-06
3.85218e-06
1.7569e-08
-4.83841e-06
-2.92508e-06
-5.37793e-05
5.3375e-05
-5.00328e-05
8.69599e-07
5.00946e-05
-2.89442e-06
8.71188e-07
3.30471e-07
-5.20076e-05
-4.81733e-07
5.20206e-05
1.49296e-07
-5.16231e-05
-1.00759e-07
8.82454e-08
5.16354e-05
3.30668e-07
3.2893e-07
-4.58977e-07
1.18829e-07
-8.95292e-08
8.59417e-08
3.09061e-07
2.53275e-07
-4.86228e-05
4.87574e-05
-4.84215e-05
8.38096e-08
4.84902e-05
2.51628e-07
8.20122e-08
3.42974e-11
-5.15322e-05
-8.13154e-08
5.15285e-05
1.7322e-07
-5.15322e-05
-8.13365e-08
-8.81479e-08
5.15285e-05
1.7323e-07
3.31679e-11
-7.75798e-08
1.59874e-07
-7.76026e-08
-8.5847e-08
1.59887e-07
3.4923e-11
-4.86111e-05
4.86135e-05
-4.86112e-05
-8.37187e-08
4.86136e-05
3.38091e-11
-8.19235e-08
-3.30269e-07
-5.16229e-05
-1.00796e-07
5.16352e-05
3.30641e-07
-5.20071e-05
-4.81737e-07
-1.11601e-08
5.202e-05
1.49693e-07
-3.28728e-07
-8.95685e-08
3.09038e-07
-4.58982e-07
-1.77194e-08
1.19224e-07
-2.53115e-07
-4.84217e-05
4.84903e-05
-4.86226e-05
-8.69327e-07
4.87571e-05
-2.51471e-07
-8.70917e-07
1.01444e-06
-5.28639e-05
3.85428e-06
5.28191e-05
-4.83506e-06
-5.43548e-05
-3.32754e-06
5.41414e-05
4.55536e-06
9.96894e-07
3.85011e-06
-4.83597e-06
-3.31024e-06
4.52477e-06
2.92328e-06
-5.00319e-05
5.00936e-05
-5.37761e-05
5.33718e-05
2.89265e-06
-1.02454e-06
-5.39307e-05
-3.29021e-06
5.3719e-05
4.52639e-06
-5.27644e-05
3.77703e-06
-6.04762e-10
5.26926e-05
-4.72915e-06
-1.01062e-06
-3.27372e-06
4.49659e-06
3.77689e-06
4.90524e-09
-4.7369e-06
-2.91687e-06
-5.29959e-05
5.26226e-05
-5.01259e-05
8.48565e-07
5.01375e-05
-2.89466e-06
8.50872e-07
3.25293e-07
-5.20181e-05
-5.16511e-07
5.19994e-05
2.09298e-07
-5.16356e-05
-1.24115e-07
9.00794e-08
5.16229e-05
3.71998e-07
3.24873e-07
-4.95278e-07
1.77811e-07
-1.11087e-07
8.84459e-08
3.47335e-07
2.50281e-07
-4.88635e-05
4.89452e-05
-4.8545e-05
8.48221e-08
4.85863e-05
2.49503e-07
8.3622e-08
3.55049e-11
-5.15163e-05
-9.21016e-08
5.14942e-05
2.04269e-07
-5.15162e-05
-9.21199e-08
-8.99795e-08
5.14941e-05
2.04274e-07
3.46218e-11
-8.51383e-08
1.85759e-07
-8.51576e-08
-8.8348e-08
1.85767e-07
3.60848e-11
-4.8612e-05
4.86047e-05
-4.8612e-05
-8.47297e-08
4.86047e-05
3.52254e-11
-8.35311e-08
-3.25094e-07
-5.16353e-05
-1.24144e-07
5.16226e-05
3.71965e-07
-5.20175e-05
-5.16511e-07
4.45054e-10
5.19988e-05
2.0969e-07
-3.24675e-07
-1.11119e-07
3.47305e-07
-4.95277e-07
-5.06145e-09
1.78198e-07
-2.50121e-07
-4.8545e-05
4.85862e-05
-4.88631e-05
-8.48296e-07
4.89448e-05
-2.49345e-07
-8.50606e-07
1.024e-06
-5.27636e-05
3.77489e-06
5.26918e-05
-4.72663e-06
-5.39292e-05
-3.28833e-06
5.37176e-05
4.52391e-06
1.01009e-06
3.7748e-06
-4.73442e-06
-3.27173e-06
4.49404e-06
2.91505e-06
-5.01249e-05
5.01364e-05
-5.2993e-05
5.26197e-05
2.89287e-06
-1.02757e-06
-5.3505e-05
-3.25061e-06
5.32884e-05
4.49475e-06
-5.26093e-05
3.69151e-06
-1.00216e-08
5.25092e-05
-4.60888e-06
-1.01641e-06
-3.23359e-06
4.46404e-06
3.69508e-06
-5.49479e-09
-4.6227e-06
-2.89731e-06
-5.22673e-05
5.1914e-05
-5.01249e-05
8.27689e-07
5.00914e-05
-2.87828e-06
8.29433e-07
3.18489e-07
-5.19652e-05
-5.48617e-07
5.19141e-05
2.7122e-07
-5.15969e-05
-1.50169e-07
9.07095e-08
5.15564e-05
4.18482e-07
3.18777e-07
-5.27972e-07
2.37859e-07
-1.35518e-07
8.96115e-08
3.90699e-07
2.45978e-07
-4.90009e-05
4.9034e-05
-4.86125e-05
8.4888e-08
4.86234e-05
2.4577e-07
8.41226e-08
3.62068e-11
-5.14614e-05
-1.0861e-07
5.14164e-05
2.44357e-07
-5.14613e-05
-1.08625e-07
-9.06085e-08
5.14162e-05
2.44358e-07
3.55442e-11
-9.87041e-08
2.21026e-07
-9.87204e-08
-8.95119e-08
2.21029e-07
3.67656e-11
-4.859e-05
4.85663e-05
-4.859e-05
-8.47948e-08
4.85662e-05
3.61185e-11
-8.40307e-08
-3.18294e-07
-5.15966e-05
-1.50191e-07
5.1556e-05
4.18443e-07
-5.19646e-05
-5.48618e-07
9.85963e-09
5.19135e-05
2.7161e-07
-3.18581e-07
-1.35543e-07
3.90663e-07
-5.27969e-07
5.33541e-09
2.38243e-07
-2.4582e-07
-4.86123e-05
4.86231e-05
-4.90004e-05
-8.27426e-07
4.90333e-05
-2.45612e-07
-8.29168e-07
1.02703e-06
-5.26084e-05
3.68936e-06
5.25083e-05
-4.60636e-06
-5.35036e-05
-3.24875e-06
5.32871e-05
4.49229e-06
1.01588e-06
3.69297e-06
-4.62021e-06
-3.23161e-06
4.4615e-06
2.8955e-06
-5.01238e-05
5.00902e-05
-5.22645e-05
5.19113e-05
2.87648e-06
-1.02434e-06
-5.30666e-05
-3.20845e-06
5.28393e-05
4.4601e-06
-5.2398e-05
3.59501e-06
-1.74157e-08
5.22683e-05
-4.4722e-06
-1.01617e-06
-3.19316e-06
4.43112e-06
3.60391e-06
-1.37707e-08
-4.49516e-06
-2.86585e-06
-5.15749e-05
5.12323e-05
-5.00324e-05
8.06296e-07
4.99552e-05
-2.85407e-06
8.08877e-07
3.10346e-07
-5.18474e-05
-5.79399e-07
5.17627e-05
3.3637e-07
-5.15014e-05
-1.78572e-07
9.02866e-08
5.14302e-05
4.69895e-07
3.11316e-07
-5.59146e-07
3.00728e-07
-1.62546e-07
8.96884e-08
4.39112e-07
2.40518e-07
-4.90429e-05
4.90292e-05
-4.8618e-05
8.4044e-08
4.85959e-05
2.40886e-07
8.36936e-08
3.64309e-11
-5.13588e-05
-1.30148e-07
5.12865e-05
2.92655e-07
-5.13586e-05
-1.3016e-07
-9.01856e-08
5.12864e-05
2.92652e-07
3.5998e-11
-1.17551e-07
2.64811e-07
-1.17565e-07
-8.95883e-08
2.64809e-07
3.69273e-11
-4.85324e-05
4.84863e-05
-4.85323e-05
-8.39514e-08
4.84861e-05
3.65261e-11
-8.36015e-08
-3.10155e-07
-5.1501e-05
-1.78586e-07
5.14297e-05
4.69851e-07
-5.18468e-05
-5.7938e-07
1.72537e-08
5.1762e-05
3.36738e-07
-3.11125e-07
-1.62563e-07
4.39071e-07
-5.59142e-07
1.36103e-08
3.01106e-07
-2.40362e-07
-4.86177e-05
4.85955e-05
-4.90421e-05
-8.06035e-07
4.90284e-05
-2.4073e-07
-8.08617e-07
1.02381e-06
-5.23971e-05
3.59288e-06
5.22673e-05
-4.46969e-06
-5.30653e-05
-3.20661e-06
5.28381e-05
4.45767e-06
1.01565e-06
3.60181e-06
-4.49267e-06
-3.19119e-06
4.42861e-06
2.86404e-06
-5.00311e-05
4.99539e-05
-5.15724e-05
5.12298e-05
2.85228e-06
-1.01728e-06
-5.26035e-05
-3.16867e-06
5.23588e-05
4.43064e-06
-5.21264e-05
3.49361e-06
-2.30116e-08
5.19646e-05
-4.32608e-06
-1.01117e-06
-3.15291e-06
4.39988e-06
3.50692e-06
-2.01757e-08
-4.35608e-06
-2.82625e-06
-5.08982e-05
5.05558e-05
-4.98555e-05
7.85232e-07
4.97376e-05
-2.81884e-06
7.87844e-07
3.01665e-07
-5.16618e-05
-6.07232e-07
5.15416e-05
4.02721e-07
-5.13432e-05
-2.09853e-07
8.91397e-08
5.12379e-05
5.2763e-07
3.02999e-07
-5.87961e-07
3.65729e-07
-1.92038e-07
8.89019e-08
4.93107e-07
2.34686e-07
-4.89938e-05
4.89371e-05
-4.85566e-05
8.26863e-08
4.84987e-05
2.35316e-07
8.26089e-08
3.62835e-11
-5.11999e-05
-1.56811e-07
5.10961e-05
3.49634e-07
-5.11997e-05
-1.56821e-07
-8.90394e-08
5.1096e-05
3.49628e-07
3.60445e-11
-1.41438e-07
3.16946e-07
-1.41449e-07
-8.88021e-08
3.16941e-07
3.67082e-11
-4.84274e-05
4.83532e-05
-4.84272e-05
-8.25946e-08
4.83531e-05
3.65019e-11
-8.25176e-08
-3.01479e-07
-5.13427e-05
-2.09861e-07
5.12375e-05
5.27582e-07
-5.1661e-05
-6.07206e-07
2.28508e-08
5.15408e-05
4.03069e-07
-3.02813e-07
-1.92049e-07
4.93062e-07
-5.87934e-07
2.00158e-08
3.66078e-07
-2.34532e-07
-4.85561e-05
4.84982e-05
-4.89929e-05
-7.84974e-07
4.89361e-05
-2.35162e-07
-7.87587e-07
1.01676e-06
-5.21255e-05
3.4915e-06
5.19637e-05
-4.32359e-06
-5.26023e-05
-3.16684e-06
5.23576e-05
4.42824e-06
1.01064e-06
3.50483e-06
-4.35362e-06
-3.15097e-06
4.3974e-06
2.82446e-06
-4.98541e-05
4.97362e-05
-5.08959e-05
5.05535e-05
2.81706e-06
-1.00674e-06
-5.21029e-05
-3.13177e-06
5.18348e-05
4.40667e-06
-5.17896e-05
3.38684e-06
-2.71549e-08
5.15927e-05
-4.1695e-06
-1.00235e-06
-3.11512e-06
4.37336e-06
3.40391e-06
-2.49749e-08
-4.20626e-06
-2.78053e-06
-5.02171e-05
4.98659e-05
-4.95979e-05
7.64575e-07
4.94396e-05
-2.77642e-06
7.67199e-07
2.92693e-07
-5.14046e-05
-6.36737e-07
5.12463e-05
4.7518e-07
-5.11156e-05
-2.44167e-07
8.74738e-08
5.09728e-05
5.92175e-07
2.94231e-07
-6.16133e-07
4.33896e-07
-2.24481e-07
8.74808e-08
5.53547e-07
2.28487e-07
-4.88589e-05
4.87582e-05
-4.84226e-05
8.09073e-08
4.8326e-05
2.29336e-07
8.10329e-08
3.57512e-11
-5.09761e-05
-1.87901e-07
5.08362e-05
4.15259e-07
-5.09759e-05
-1.87909e-07
-8.73752e-08
5.0836e-05
4.15251e-07
3.57038e-11
-1.70162e-07
3.77644e-07
-1.70171e-07
-8.73822e-08
3.77637e-07
3.61228e-11
-4.82641e-05
4.8157e-05
-4.82639e-05
-8.08174e-08
4.81568e-05
3.61014e-11
-8.0943e-08
-2.92513e-07
-5.11151e-05
-2.44171e-07
5.09723e-05
5.92124e-07
-5.14038e-05
-6.36712e-07
2.6996e-08
5.12455e-05
4.75522e-07
-2.9405e-07
-2.24486e-07
5.53497e-07
-6.16105e-07
2.48168e-08
4.3423e-07
-2.28337e-07
-4.84219e-05
4.83253e-05
-4.88578e-05
-7.64322e-07
4.8757e-05
-2.29185e-07
-7.66946e-07
1.00623e-06
-5.17887e-05
3.38476e-06
5.15917e-05
-4.16704e-06
-5.21018e-05
-3.12998e-06
5.18336e-05
4.40431e-06
1.00183e-06
3.40185e-06
-4.20383e-06
-3.11321e-06
4.37092e-06
2.77876e-06
-4.95964e-05
4.94381e-05
-5.0215e-05
4.98638e-05
2.77466e-06
-9.93613e-07
-5.15526e-05
-3.09884e-06
5.12549e-05
4.39013e-06
-5.13814e-05
3.27459e-06
-2.99677e-08
5.11458e-05
-4.00269e-06
-9.90584e-07
-3.0804e-06
4.35318e-06
3.29528e-06
-2.83862e-08
-4.04616e-06
-2.7302e-06
-4.95142e-05
4.91456e-05
-4.92591e-05
7.44528e-07
4.9059e-05
-2.72876e-06
7.47049e-07
2.83648e-07
-5.10699e-05
-6.68653e-07
5.08701e-05
5.54773e-07
-5.08115e-05
-2.82007e-07
8.54065e-08
5.06274e-05
6.64373e-07
2.85298e-07
-6.46598e-07
5.0939e-07
-2.60133e-07
8.56265e-08
6.21169e-07
2.22115e-07
-4.86356e-05
4.84893e-05
-4.82098e-05
7.8858e-08
4.80711e-05
2.23101e-07
7.91249e-08
3.48858e-11
-5.06781e-05
-2.24264e-07
5.04978e-05
4.89967e-07
-5.06779e-05
-2.24269e-07
-8.53105e-08
5.04976e-05
4.89956e-07
3.50028e-11
-2.03427e-07
4.47049e-07
-2.03434e-07
-8.55301e-08
4.47039e-07
3.51937e-11
-4.80327e-05
4.78872e-05
-4.80324e-05
-7.87706e-08
4.7887e-05
3.53465e-11
-7.9037e-08
-2.83473e-07
-5.08109e-05
-2.82007e-07
5.06268e-05
6.64317e-07
-5.1069e-05
-6.68625e-07
2.98111e-08
5.08692e-05
5.55103e-07
-2.85121e-07
-2.60134e-07
6.21115e-07
-6.4657e-07
2.82301e-08
5.09722e-07
-2.21969e-07
-4.82091e-05
4.80702e-05
-4.86343e-05
-7.4428e-07
4.8488e-05
-2.22954e-07
-7.46801e-07
9.93104e-07
-5.13804e-05
3.27255e-06
5.11448e-05
-4.00029e-06
-5.15515e-05
-3.09708e-06
5.12538e-05
4.38781e-06
9.90076e-07
3.29325e-06
-4.04377e-06
-3.07852e-06
4.35078e-06
2.72846e-06
-4.92575e-05
4.90573e-05
-4.95123e-05
4.91436e-05
2.72702e-06
-9.78106e-07
-5.09404e-05
-3.07006e-06
5.06069e-05
4.38166e-06
-5.08945e-05
3.15672e-06
-3.16787e-08
5.06164e-05
-3.82506e-06
-9.76075e-07
-3.04889e-06
4.33946e-06
3.18043e-06
-3.05971e-08
-3.87458e-06
-2.67584e-06
-4.87728e-05
4.83785e-05
-4.8836e-05
7.24997e-07
4.85919e-05
-2.67609e-06
7.27255e-07
2.7459e-07
-5.0651e-05
-7.03163e-07
5.04062e-05
6.41675e-07
-5.04231e-05
-3.23688e-07
8.30202e-08
5.01935e-05
7.44871e-07
2.76247e-07
-6.79213e-07
5.91504e-07
-2.9937e-07
8.33862e-08
6.96481e-07
2.15629e-07
-4.83207e-05
4.81269e-05
-4.79114e-05
7.66096e-08
4.77267e-05
2.16666e-07
7.69683e-08
3.37667e-11
-5.02975e-05
-2.6571e-07
5.00721e-05
5.74147e-07
-5.02973e-05
-2.65714e-07
-8.29272e-08
5.00718e-05
5.74135e-07
3.40002e-11
-2.41877e-07
5.2552e-07
-2.41881e-07
-8.32926e-08
5.25509e-07
3.39955e-11
-4.77223e-05
4.75332e-05
-4.7722e-05
-7.6525e-08
4.75329e-05
3.42716e-11
-7.68831e-08
-2.74419e-07
-5.04225e-05
-3.23684e-07
5.01929e-05
7.44813e-07
-5.06501e-05
-7.03131e-07
3.15255e-08
5.04053e-05
6.41991e-07
-2.76076e-07
-2.99368e-07
6.96424e-07
-6.79181e-07
3.04438e-08
5.91822e-07
-2.15487e-07
-4.79105e-05
4.77258e-05
-4.83193e-05
-7.24756e-07
4.81254e-05
-2.16523e-07
-7.27013e-07
9.77608e-07
-5.08935e-05
3.15473e-06
5.06154e-05
-3.82272e-06
-5.09393e-05
-3.06834e-06
5.06059e-05
4.37939e-06
9.75577e-07
3.17845e-06
-3.87223e-06
-3.04705e-06
4.33711e-06
2.67414e-06
-4.88344e-05
4.85902e-05
-4.8771e-05
4.83768e-05
2.67439e-06
-9.60918e-07
-5.02538e-05
-3.04729e-06
4.98781e-05
4.38388e-06
-5.03207e-05
3.03445e-06
-3.24597e-08
4.99956e-05
-3.63782e-06
-9.60061e-07
-3.02409e-06
4.33727e-06
3.06233e-06
-3.18194e-08
-3.69486e-06
-2.61906e-06
-4.7976e-05
4.75478e-05
-4.83242e-05
7.06202e-07
4.80334e-05
-2.62157e-06
7.08445e-07
2.65664e-07
-5.01404e-05
-7.4111e-07
4.98463e-05
7.37029e-07
-4.99419e-05
-3.69713e-07
8.04216e-08
4.96622e-05
8.3464e-07
2.67401e-07
-7.15129e-07
6.8173e-07
-3.42795e-07
8.09291e-08
7.80831e-07
2.09158e-07
-4.79099e-05
4.76659e-05
-4.75195e-05
7.42392e-08
4.72847e-05
2.10294e-07
7.46933e-08
3.24851e-11
-4.98246e-05
-3.12481e-07
4.9549e-05
6.68458e-07
-4.98244e-05
-3.12483e-07
-8.0332e-08
4.95488e-05
6.68444e-07
3.28112e-11
-2.8557e-07
6.13936e-07
-2.85573e-07
-8.08387e-08
6.13923e-07
3.26261e-11
-4.73223e-05
4.7084e-05
-4.73219e-05
-7.41576e-08
4.70836e-05
3.29995e-11
-7.4611e-08
-2.65499e-07
-4.99413e-05
-3.69706e-07
4.96616e-05
8.34579e-07
-5.01394e-05
-7.41074e-07
3.23105e-08
4.98454e-05
7.37331e-07
-2.67235e-07
-3.42789e-07
7.80772e-07
-7.15094e-07
3.16697e-08
6.82035e-07
-2.09021e-07
-4.75185e-05
4.72837e-05
-4.79084e-05
-7.05967e-07
4.76643e-05
-2.10155e-07
-7.08209e-07
9.6043e-07
-5.03197e-05
3.03251e-06
4.99946e-05
-3.63554e-06
-5.02528e-05
-3.0456e-06
4.98772e-05
4.38165e-06
9.59573e-07
3.0604e-06
-3.69258e-06
-3.02228e-06
4.33497e-06
2.6174e-06
-4.83225e-05
4.80316e-05
-4.79744e-05
4.75462e-05
2.61991e-06
-9.42281e-07
-4.94801e-05
-3.03072e-06
4.90558e-05
4.3973e-06
-4.96511e-05
2.9075e-06
-3.24581e-08
4.92743e-05
-3.44055e-06
-9.42248e-07
-3.00446e-06
4.34477e-06
2.93886e-06
-3.21872e-08
-3.50439e-06
-2.56031e-06
-4.71075e-05
4.66371e-05
-4.77179e-05
6.88066e-07
4.73771e-05
-2.56421e-06
6.90138e-07
2.56879e-07
-4.95296e-05
-7.82934e-07
4.91818e-05
8.41376e-07
-4.93587e-05
-4.20431e-07
7.7658e-08
4.90242e-05
9.34216e-07
2.5862e-07
-7.54534e-07
7.80499e-07
-3.9063e-07
7.8266e-08
8.74473e-07
2.02725e-07
-4.73976e-05
4.71e-05
-4.70257e-05
7.17764e-08
4.67362e-05