/*--------------------------------*- C++ -*----------------------------------*\
  =========                 |
  \\      /  F ield         | OpenFOAM: The Open Source CFD Toolbox
   \\    /   O peration     | Website:  https://openfoam.org
    \\  /    A nd           | Version:  9
     \\/     M anipulation  |
\*---------------------------------------------------------------------------*/
FoamFile
{
    format      ascii;
    class       volScalarField;
    location    "4.15";
    object      k;
}
// * * * * * * * * * * * * * * * * * * * * * * * * * * * * * * * * * * * * * //

dimensions      [0 2 -2 0 0 0 0];

internalField   nonuniform List<scalar> 
36360
(
0.145549
0.124798
0.0862513
0.0770596
0.0423437
0.036278
0.0150394
0.017057
0.0719475
0.0425091
0.0351152
0.0135039
0.0197442
0.00942792
0.00686296
0.0038845
0.0290088
0.0290039
0.00654465
0.00654418
0.0060891
0.00608878
0.0030571
0.00305712
0.0424886
0.0719058
0.0134967
0.0350901
0.00942455
0.0197324
0.00388411
0.00685955
0.124736
0.145473
0.0770136
0.0861911
0.0362572
0.042317
0.0170447
0.0150257
0.224603
0.197416
0.188813
0.163603
0.079781
0.0677094
0.0631474
0.0529398
0.137341
0.103509
0.10579
0.0733101
0.0475281
0.0350169
0.033964
0.0216764
0.0885206
0.0885076
0.058948
0.0589385
0.0294395
0.0294355
0.0160168
0.0160149
0.103468
0.137272
0.0732787
0.105734
0.0350035
0.0475031
0.0216678
0.0339457
0.197322
0.224494
0.163525
0.18872
0.067672
0.0797349
0.0529105
0.0631108
0.286329
0.257291
0.2567
0.228407
0.107768
0.0939595
0.094358
0.081253
0.195084
0.159929
0.16704
0.132428
0.0725405
0.0597141
0.0603493
0.0476848
0.144215
0.144197
0.117029
0.117013
0.0540336
0.0540268
0.0420833
0.0420779
0.159873
0.194992
0.13238
0.166959
0.0596928
0.0725035
0.0476673
0.0603181
0.257171
0.286191
0.228299
0.256575
0.0939068
0.107703
0.0812077
0.0943025
0.33955
0.30958
0.313863
0.284292
0.131983
0.117216
0.120268
0.105925
0.246352
0.21047
0.221499
0.185936
0.0950511
0.0819052
0.084099
0.0711085
0.194298
0.194275
0.169969
0.169949
0.0760335
0.0760245
0.0653314
0.0653235
0.210403
0.246244
0.185875
0.221398
0.0818777
0.0950046
0.0710839
0.0840569
0.309439
0.339389
0.28416
0.313712
0.117151
0.131904
0.105865
0.120196
0.385644
0.355149
0.363437
0.333168
0.153113
0.137733
0.142913
0.127806
0.29136
0.255051
0.269621
0.233498
0.115041
0.101636
0.105357
0.0920724
0.238589
0.238564
0.217163
0.217139
0.0956045
0.0955938
0.0861151
0.0861052
0.254977
0.29124
0.233427
0.269507
0.101603
0.114987
0.0920425
0.105306
0.354994
0.385468
0.33302
0.363267
0.137658
0.153022
0.127736
0.142827
0.42518
0.394396
0.406183
0.375521
0.171335
0.155557
0.162565
0.146964
0.330317
0.293774
0.311566
0.275122
0.132491
0.118896
0.124071
0.110562
0.277141
0.277115
0.258562
0.258537
0.11275
0.112738
0.104468
0.104457
0.293695
0.33019
0.275046
0.311442
0.11886
0.132432
0.110528
0.124014
0.394233
0.424996
0.375361
0.406001
0.155476
0.171235
0.146885
0.162469
0.458721
0.42779
0.442649
0.411778
0.186852
0.170818
0.179406
0.163485
0.36359
0.326938
0.347628
0.31102
0.147489
0.133762
0.140278
0.12661
0.310215
0.310187
0.294334
0.294307
0.127537
0.127525
0.120421
0.120409
0.326856
0.363459
0.310939
0.347499
0.133724
0.147427
0.126574
0.140217
0.427623
0.458531
0.411612
0.44246
0.170732
0.186747
0.163401
0.179303
0.486877
0.455888
0.473421
0.442454
0.199915
0.183717
0.193663
0.177537
0.39167
0.354986
0.37824
0.341566
0.160207
0.14639
0.154111
0.140334
0.338224
0.338196
0.324819
0.324791
0.140114
0.140101
0.134081
0.134068
0.354903
0.391537
0.341483
0.378108
0.146351
0.160142
0.140296
0.154047
0.455718
0.486685
0.442284
0.473229
0.183628
0.199806
0.177449
0.193555
0.510235
0.479243
0.499106
0.468111
0.210779
0.194479
0.205594
0.189337
0.415074
0.378405
0.403917
0.367237
0.170846
0.156973
0.165761
0.151914
0.361636
0.361608
0.350469
0.35044
0.150662
0.150649
0.145618
0.145605
0.378321
0.41494
0.367153
0.403783
0.156932
0.170779
0.151874
0.165696
0.479072
0.510042
0.467939
0.498911
0.194387
0.210667
0.189246
0.205482
0.529378
0.498416
0.520288
0.489308
0.219705
0.203345
0.215457
0.199122
0.434336
0.397712
0.425185
0.388537
0.179631
0.165723
0.175446
0.161553
0.380955
0.380926
0.371772
0.371744
0.159392
0.159378
0.15523
0.155217
0.397628
0.434201
0.388453
0.425051
0.165682
0.179563
0.161512
0.175378
0.498244
0.529184
0.489136
0.520093
0.203252
0.21959
0.199029
0.215343
0.544822
0.513912
0.537518
0.50658
0.226926
0.210534
0.223502
0.207122
0.449948
0.413388
0.442562
0.40597
0.186773
0.172848
0.183382
0.169465
0.396656
0.396628
0.389224
0.389195
0.166506
0.166492
0.163127
0.163113
0.413304
0.449813
0.405885
0.442427
0.172806
0.186704
0.169423
0.183314
0.513741
0.544629
0.506408
0.537322
0.21044
0.22681
0.207028
0.223385
0.557049
0.526206
0.551298
0.520421
0.232662
0.216257
0.229955
0.213553
0.462375
0.425893
0.456527
0.420007
0.192474
0.178547
0.18978
0.175853
0.409194
0.409165
0.403291
0.403262
0.1722
0.172186
0.169507
0.169493
0.425808
0.46224
0.419922
0.456393
0.178505
0.192405
0.175811
0.189711
0.526035
0.556857
0.520249
0.551104
0.216161
0.232545
0.213458
0.229837
0.566475
0.535711
0.562075
0.53127
0.237104
0.220699
0.23502
0.218613
0.472026
0.435631
0.467518
0.43108
0.196918
0.182998
0.19483
0.180905
0.418971
0.418942
0.4144
0.414371
0.176653
0.176639
0.174559
0.174545
0.435546
0.471892
0.430995
0.467384
0.182955
0.196848
0.180863
0.194761
0.535541
0.566284
0.531099
0.561881
0.220603
0.236986
0.218517
0.234901
0.57348
0.542804
0.570247
0.539526
0.240427
0.224033
0.238882
0.22248
0.479273
0.442972
0.475924
0.439576
0.200269
0.186365
0.198708
0.184795
0.426356
0.426327
0.422938
0.42291
0.180028
0.180014
0.178454
0.178439
0.442888
0.47914
0.439492
0.47579
0.186323
0.200199
0.184753
0.198638
0.542635
0.57329
0.539356
0.570054
0.223936
0.240308
0.222384
0.238762
0.578381
0.547803
0.576164
0.545535
0.242778
0.226403
0.241702
0.225315
0.484435
0.448236
0.482092
0.445842
0.202673
0.188793
0.201569
0.187676
0.431668
0.431639
0.42925
0.429222
0.182467
0.182452
0.181344
0.181329
0.448152
0.484303
0.445759
0.481959
0.188751
0.202603
0.187634
0.201499
0.547635
0.578192
0.545366
0.575972
0.226307
0.242659
0.225219
0.241581
0.58146
0.550991
0.580121
0.549597
0.244289
0.227939
0.243618
0.227253
0.487793
0.451702
0.48632
0.450175
0.204255
0.190407
0.203547
0.189682
0.435186
0.435158
0.433633
0.433605
0.184095
0.184081
0.183362
0.183348
0.451619
0.487661
0.450092
0.486188
0.190365
0.204185
0.18964
0.203477
0.550824
0.581272
0.549429
0.579931
0.227843
0.244169
0.227157
0.243497
0.582952
0.552607
0.58238
0.551972
0.245069
0.228751
0.24475
0.228415
0.489588
0.453612
0.488869
0.452836
0.205127
0.191316
0.204762
0.190931
0.437152
0.437124
0.436348
0.43632
0.185022
0.185007
0.184627
0.184613
0.45353
0.489458
0.452754
0.488738
0.191274
0.205057
0.190889
0.204692
0.552442
0.582767
0.551805
0.582192
0.228655
0.24495
0.228318
0.24463
0.583061
0.552851
0.583155
0.552878
0.245205
0.228923
0.245199
0.2289
0.490019
0.454166
0.48996
0.454046
0.205372
0.191606
0.205313
0.191523
0.437764
0.437736
0.437615
0.437587
0.185332
0.185318
0.185238
0.185224
0.454084
0.48989
0.453964
0.48983
0.191563
0.205303
0.191481
0.205243
0.552688
0.582878
0.552713
0.582968
0.228828
0.245086
0.228803
0.245079
0.581965
0.551914
0.582653
0.552522
0.244803
0.228565
0.245069
0.228807
0.489285
0.453561
0.489795
0.454004
0.2051
0.191381
0.205295
0.191548
0.437221
0.437194
0.437631
0.437603
0.185129
0.185115
0.185283
0.185269
0.45348
0.489157
0.453922
0.489667
0.191339
0.205031
0.191506
0.205226
0.551752
0.581784
0.552359
0.582469
0.22847
0.244685
0.228711
0.244949
0.579775
0.549901
0.580987
0.551023
0.243894
0.227703
0.244393
0.228177
0.487483
0.451896
0.488504
0.452849
0.204334
0.190668
0.204759
0.191066
0.435623
0.435595
0.436542
0.436515
0.184441
0.184427
0.184826
0.184812
0.451816
0.487357
0.452768
0.488377
0.190626
0.204265
0.191024
0.204691
0.549741
0.579596
0.550861
0.580805
0.227609
0.243776
0.228082
0.244274
0.576611
0.546937
0.578299
0.548522
0.242542
0.226404
0.243257
0.227091
0.484747
0.449305
0.486224
0.450709
0.203145
0.189538
0.203778
0.19014
0.433103
0.433077
0.434472
0.434444
0.183339
0.183325
0.183927
0.183913
0.449226
0.484622
0.45063
0.486098
0.189497
0.203078
0.190099
0.20371
0.546779
0.576435
0.548363
0.578119
0.226311
0.242426
0.226997
0.243139
0.572556
0.543109
0.574681
0.545117
0.240786
0.224707
0.241699
0.225589
0.48116
0.445875
0.483053
0.44769
0.201571
0.188028
0.202392
0.188816
0.429749
0.429723
0.431526
0.431499
0.18186
0.181846
0.182632
0.182618
0.445797
0.481037
0.447611
0.482929
0.187988
0.201504
0.188775
0.202325
0.542953
0.572382
0.54496
0.574503
0.224614
0.240671
0.225496
0.241583
0.567672
0.538479
0.570205
0.540882
0.238656
0.22264
0.239753
0.223703
0.476789
0.44167
0.479068
0.443865
0.199641
0.186168
0.200637
0.187128
0.425625
0.425599
0.42778
0.427753
0.180032
0.180019
0.180976
0.180962
0.441593
0.476668
0.443788
0.478945
0.186128
0.199575
0.187088
0.200571
0.538326
0.567501
0.540727
0.570031
0.222549
0.238543
0.223612
0.239638
0.562003
0.533094
0.564924
0.535869
0.236171
0.220224
0.237444
0.22146
0.471679
0.436737
0.474323
0.439292
0.197376
0.183978
0.198538
0.185101
0.420779
0.420753
0.42329
0.423264
0.177878
0.177864
0.178983
0.178969
0.436661
0.47156
0.439215
0.474202
0.183939
0.197311
0.185062
0.198472
0.532943
0.561835
0.535717
0.564753
0.220135
0.23606
0.22137
0.23733
0.555578
0.526983
0.558875
0.530119
0.233346
0.217474
0.234788
0.218876
0.465861
0.431106
0.468856
0.434007
0.19479
0.181473
0.196111
0.182753
0.41524
0.415214
0.418094
0.418069
0.17541
0.175397
0.17667
0.176657
0.431032
0.465744
0.433932
0.468738
0.181434
0.194726
0.182713
0.196047
0.526835
0.555414
0.529969
0.558706
0.217386
0.233237
0.218788
0.234676
0.548415
0.520164
0.552079
0.523653
0.230188
0.214396
0.231796
0.215962
0.459352
0.424794
0.462691
0.428035
0.191889
0.178658
0.193367
0.180092
0.409025
0.409
0.412216
0.412191
0.172635
0.172622
0.174049
0.174036
0.424721
0.459237
0.427961
0.462575
0.17862
0.191827
0.180054
0.193304
0.520019
0.548254
0.523506
0.551914
0.21431
0.230081
0.215875
0.231687
0.540521
0.512644
0.544551
0.516483
0.226701
0.210995
0.228474
0.212723
0.452156
0.417806
0.455839
0.421385
0.188677
0.175536
0.190311
0.177124
0.402137
0.402113
0.405665
0.40564
0.169555
0.169543
0.171122
0.171109
0.417734
0.452044
0.421312
0.455725
0.175499
0.188616
0.177087
0.190249
0.512502
0.540364
0.516339
0.544389
0.21091
0.226596
0.212638
0.228367
0.531898
0.50442
0.536292
0.508612
0.222883
0.207268
0.224822
0.209159
0.444271
0.410135
0.448299
0.414056
0.18515
0.172105
0.186942
0.173849
0.394572
0.394548
0.39844
0.398416
0.166168
0.166156
0.16789
0.167877
0.410065
0.44416
0.413986
0.448188
0.172068
0.18509
0.173812
0.186882
0.504281
0.531743
0.508471
0.536134
0.207185
0.222781
0.209076
0.224717
0.522537
0.495481
0.527301
0.500032
0.21873
0.203209
0.220838
0.205268
0.435681
0.401768
0.440064
0.40604
0.181303
0.168356
0.183257
0.17026
0.386314
0.386291
0.390531
0.390507
0.162466
0.162454
0.164346
0.164334
0.401699
0.435573
0.40597
0.439954
0.168321
0.181244
0.170224
0.183198
0.495345
0.522386
0.499895
0.527147
0.203129
0.21863
0.205186
0.220736
0.512426
0.48581
0.517568
0.49073
0.214234
0.198809
0.216515
0.20104
0.426368
0.392682
0.431115
0.397316
0.177124
0.164281
0.179246
0.16635
0.377341
0.377319
0.381919
0.381896
0.15844
0.158428
0.160484
0.160472
0.392615
0.426262
0.397249
0.431008
0.164246
0.177067
0.166315
0.179188
0.485677
0.512279
0.490595
0.517417
0.198731
0.214137
0.200961
0.216415
0.501551
0.475384
0.507077
0.480684
0.209387
0.194064
0.211845
0.196468
0.416304
0.382851
0.42143
0.387862
0.172604
0.159867
0.174898
0.162107
0.367625
0.367602
0.372578
0.372556
0.154076
0.154064
0.156291
0.156279
0.382785
0.416201
0.387795
0.421326
0.159833
0.172549
0.162073
0.174842
0.475254
0.501407
0.480553
0.506929
0.193988
0.209293
0.19639
0.211748
0.489888
0.464175
0.495811
0.469871
0.204176
0.188961
0.206818
0.191548
0.405459
0.372237
0.410981
0.377644
0.167727
0.155097
0.170202
0.157518
0.357129
0.357107
0.362477
0.362455
0.149358
0.149347
0.151753
0.151741
0.372173
0.405358
0.377579
0.410879
0.155064
0.167673
0.157485
0.170148
0.464048
0.489748
0.469743
0.495668
0.188888
0.204084
0.191473
0.206724
0.477409
0.452147
0.483745
0.458258
0.198582
0.18348
0.201418
0.186258
0.39379
0.3608
0.399729
0.366625
0.162474
0.149953
0.16514
0.152564
0.345809
0.345787
0.351575
0.351553
0.144269
0.144258
0.146852
0.146841
0.360737
0.393691
0.366561
0.399629
0.149921
0.162421
0.152532
0.165087
0.452023
0.477272
0.458133
0.483605
0.183408
0.198493
0.186186
0.201327
0.464078
0.439258
0.470844
0.445804
0.192585
0.177601
0.195626
0.180581
0.381251
0.348486
0.387631
0.354756
0.156822
0.144412
0.159691
0.147225
0.33361
0.333589
0.339823
0.339802
0.138783
0.138772
0.141568
0.141557
0.348425
0.381155
0.354694
0.387534
0.144381
0.156771
0.147193
0.159639
0.439137
0.463945
0.445682
0.470708
0.177532
0.192499
0.180511
0.195538
0.449862
0.425468
0.457074
0.432469
0.186161
0.171309
0.189419
0.174498
0.367789
0.33523
0.374638
0.34198
0.150748
0.138445
0.153832
0.141475
0.320461
0.320441
0.32716
0.327139
0.132871
0.132861
0.135874
0.135864
0.335171
0.367695
0.34192
0.374543
0.138415
0.150699
0.141445
0.153782
0.425351
0.449733
0.432351
0.456941
0.171242
0.186079
0.17443
0.189334
0.434762
0.410753
0.442411
0.418218
0.179297
0.164596
0.182776
0.167995
0.353337
0.320936
0.360691
0.328221
0.144222
0.132011
0.147536
0.135282
0.306251
0.306231
0.313498
0.313478
0.126487
0.126478
0.129734
0.129724
0.320879
0.353248
0.328163
0.360599
0.131982
0.144176
0.135253
0.147489
0.410641
0.434637
0.418104
0.442283
0.164533
0.179219
0.16793
0.182695
0.418952
0.395125
0.42691
0.403045
0.172041
0.157487
0.175701
0.161079
0.337765
0.305411
0.345706
0.313346
0.137191
0.125034
0.140769
0.12859
0.290777
0.290759
0.298689
0.29867
0.119553
0.119544
0.123088
0.123079
0.305357
0.33768
0.31329
0.345618
0.125008
0.137148
0.128563
0.140724
0.395018
0.418833
0.402935
0.426787
0.157428
0.171968
0.161018
0.175625
0.403472
0.378356
0.411004
0.386934
0.164782
0.149986
0.168346
0.15379
0.320537
0.288215
0.32943
0.297064
0.129464
0.117354
0.133434
0.12129
0.273703
0.273685
0.282463
0.282446
0.111949
0.111941
0.115834
0.115826
0.288165
0.320458
0.297012
0.329348
0.11733
0.129424
0.121264
0.133392
0.378256
0.403361
0.38683
0.410888
0.149931
0.164715
0.153733
0.168274
0.394577
0.355989
0.397344
0.368812
0.158637
0.140168
0.161582
0.145762
0.299477
0.268619
0.31073
0.278745
0.120268
0.108762
0.125128
0.113167
0.254772
0.254756
0.264459
0.264443
0.103652
0.103645
0.107866
0.107859
0.268573
0.299405
0.278697
0.310654
0.10874
0.120233
0.113144
0.125091
0.355899
0.394477
0.368717
0.397237
0.14012
0.158578
0.14571
0.161518
0.237697
0.206044
0.161855
0.140289
0.198401
0.170518
0.128718
0.111353
0.138112
0.0972006
0.0816052
0.0476634
0.107796
0.0709405
0.0590388
0.0297745
0.0783767
0.0783599
0.0324834
0.0324746
0.0542559
0.0542448
0.0162173
0.016214
0.0971472
0.13802
0.0476278
0.0815334
0.0709032
0.107729
0.0297543
0.058991
0.205921
0.237554
0.140183
0.161726
0.170424
0.19829
0.111277
0.128622
0.352531
0.31434
0.299156
0.263165
0.298669
0.264066
0.252545
0.220167
0.239261
0.193308
0.190443
0.146208
0.193734
0.151849
0.15233
0.112098
0.17186
0.171834
0.125684
0.125662
0.132673
0.132653
0.0937527
0.0937367
0.193231
0.239137
0.146142
0.190334
0.151789
0.193635
0.112048
0.152246
0.314182
0.352354
0.263023
0.298995
0.263937
0.298522
0.220055
0.252415
0.445864
0.405514
0.401075
0.361569
0.378819
0.342038
0.340368
0.30445
0.328283
0.280631
0.285139
0.238156
0.269339
0.225807
0.232661
0.189791
0.258182
0.258151
0.216118
0.216089
0.205711
0.205685
0.170081
0.170058
0.280538
0.328137
0.23807
0.285002
0.22573
0.269216
0.189722
0.232548
0.405331
0.445663
0.361397
0.400883
0.341881
0.378642
0.304305
0.340204
0.525696
0.484444
0.487289
0.446394
0.447544
0.409769
0.414437
0.377073
0.406548
0.358173
0.368725
0.320636
0.336131
0.291797
0.303805
0.259807
0.335224
0.335189
0.297894
0.297861
0.271185
0.271155
0.239419
0.239391
0.35807
0.406388
0.320537
0.368571
0.291709
0.335991
0.259724
0.303672
0.484247
0.525481
0.446203
0.487078
0.409592
0.447347
0.376904
0.414248
0.594035
0.552428
0.561205
0.519732
0.506669
0.468407
0.478228
0.440168
0.474513
0.425884
0.441781
0.393239
0.394438
0.34971
0.366319
0.321751
0.402699
0.402663
0.370148
0.370112
0.328808
0.328775
0.300973
0.300941
0.425777
0.474348
0.393134
0.441618
0.349615
0.394288
0.321659
0.366173
0.552227
0.593818
0.519532
0.560987
0.46822
0.506462
0.439985
0.478024
0.652101
0.610413
0.624263
0.582595
0.557122
0.518641
0.532907
0.494513
0.53279
0.484162
0.504809
0.456159
0.444656
0.399773
0.420516
0.375689
0.460898
0.460861
0.432921
0.432884
0.378725
0.378691
0.354701
0.354667
0.484054
0.532624
0.456052
0.504643
0.399675
0.444502
0.375592
0.420364
0.610213
0.651887
0.582393
0.624044
0.518449
0.556911
0.494323
0.532696
0.701006
0.659379
0.677615
0.635948
0.599759
0.561208
0.579347
0.540819
0.582192
0.533705
0.558542
0.509975
0.487379
0.442484
0.466906
0.422006
0.510451
0.510414
0.486709
0.486671
0.421378
0.421344
0.40092
0.400886
0.533598
0.582029
0.509867
0.558377
0.442384
0.487223
0.421906
0.46675
0.659184
0.7008
0.635749
0.677402
0.561015
0.599548
0.540626
0.579133
0.741824
0.700329
0.72235
0.680785
0.635444
0.596908
0.618404
0.579854
0.623636
0.57536
0.603852
0.555467
0.523321
0.478496
0.506147
0.461282
0.552168
0.552131
0.53224
0.532203
0.457388
0.457354
0.44017
0.440136
0.575255
0.623476
0.555361
0.60369
0.478396
0.523165
0.461182
0.505991
0.70014
0.741626
0.680592
0.722144
0.596717
0.635235
0.579662
0.618191
0.775517
0.734191
0.759488
0.718078
0.664971
0.6265
0.650912
0.612406
0.658005
0.609976
0.64165
0.593498
0.553198
0.508491
0.538967
0.4942
0.586871
0.586836
0.570348
0.570312
0.487413
0.487379
0.473104
0.47307
0.609873
0.65785
0.593394
0.641492
0.508392
0.553044
0.4941
0.538813
0.734009
0.775328
0.717891
0.759291
0.626312
0.664766
0.612216
0.650702
0.803003
0.761862
0.789972
0.748741
0.689111
0.650732
0.677656
0.639231
0.686172
0.6384
0.672816
0.624917
0.577732
0.533168
0.566087
0.521452
0.615398
0.615363
0.601863
0.601828
0.512139
0.512106
0.500397
0.500363
0.6383
0.686022
0.624816
0.672663
0.53307
0.57758
0.521353
0.565934
0.761688
0.802823
0.748562
0.789784
0.650547
0.68891
0.639043
0.677449
0.82508
0.78413
0.814657
0.773615
0.70854
0.670273
0.699358
0.661036
0.708915
0.661401
0.698178
0.650538
0.597577
0.55317
0.588198
0.543713
0.638507
0.638473
0.62759
0.627556
0.532202
0.532169
0.522715
0.522681
0.661304
0.708769
0.65044
0.698029
0.553073
0.597427
0.543616
0.588047
0.783962
0.824909
0.773443
0.814478
0.67009
0.708343
0.660851
0.699155
0.842474
0.801716
0.834312
0.793461
0.723884
0.685737
0.716674
0.678468
0.726951
0.67969
0.718486
0.671101
0.613344
0.5691
0.605934
0.56161
0.656905
0.656872
0.648263
0.648229
0.5482
0.548167
0.540675
0.540642
0.679595
0.72681
0.671006
0.718342
0.569004
0.613196
0.561513
0.605785
0.801554
0.842311
0.793295
0.83414
0.685558
0.723691
0.678287
0.716476
0.855804
0.815239
0.849599
0.808941
0.735676
0.697659
0.730177
0.692097
0.740901
0.693886
0.734405
0.687271
0.625563
0.581485
0.619864
0.575704
0.671211
0.671179
0.664542
0.664509
0.560657
0.560624
0.55484
0.554808
0.693794
0.740763
0.687178
0.734265
0.58139
0.625418
0.575609
0.619717
0.815082
0.855648
0.80878
0.849435
0.697483
0.735487
0.691918
0.729982
0.86563
0.825257
0.861113
0.820647
0.744401
0.706521
0.74038
0.702433
0.751323
0.704546
0.746527
0.699635
0.634716
0.590805
0.630494
0.586502
0.68198
0.681948
0.677015
0.676983
0.570051
0.570019
0.565711
0.565679
0.704456
0.751189
0.699544
0.746392
0.590711
0.634572
0.586407
0.630349
0.825106
0.865481
0.820493
0.860956
0.706348
0.744216
0.702258
0.740189
0.872414
0.832238
0.869366
0.829094
0.750463
0.71273
0.747728
0.709922
0.758693
0.712149
0.75537
0.708713
0.641212
0.59747
0.638272
0.594447
0.68969
0.689659
0.686201
0.686169
0.576795
0.576763
0.573733
0.573701
0.712061
0.758563
0.708624
0.755237
0.597378
0.64107
0.594354
0.638129
0.832092
0.872271
0.828944
0.869215
0.71256
0.750282
0.70975
0.74754
0.87657
0.836596
0.874789
0.834716
0.754222
0.716644
0.752597
0.714942
0.763426
0.71711
0.761374
0.714947
0.645411
0.601842
0.643578
0.599924
0.694758
0.694728
0.692542
0.692512
0.581246
0.581215
0.579289
0.579257
0.717024
0.763299
0.71486
0.761244
0.601751
0.645271
0.599833
0.643437
0.836454
0.876433
0.834571
0.874644
0.716477
0.754044
0.714773
0.752413
0.878443
0.838679
0.877765
0.837897
0.755978
0.718569
0.755321
0.717828
0.765875
0.719786
0.764925
0.718725
0.647621
0.604227
0.646748
0.603268
0.697541
0.697512
0.696427
0.696397
0.583714
0.583683
0.582713
0.582682
0.719701
0.76575
0.71864
0.764799
0.604137
0.647483
0.603177
0.646608
0.838541
0.878311
0.837757
0.877625
0.718405
0.755803
0.717661
0.75514
0.878333
0.838788
0.878608
0.838957
0.755992
0.718764
0.756172
0.718856
0.766341
0.720477
0.766348
0.720374
0.648101
0.604886
0.648063
0.604761
0.69834
0.698311
0.698184
0.698155
0.584458
0.584427
0.58429
0.584259
0.720394
0.76622
0.72029
0.766225
0.604797
0.647965
0.604671
0.647925
0.838654
0.878206
0.83882
0.878473
0.718603
0.755821
0.718692
0.755995
0.876473
0.83717
0.877604
0.838182
0.754476
0.717454
0.755407
0.718282
0.765088
0.719453
0.765933
0.720183
0.647087
0.604059
0.647778
0.604655
0.697427
0.697398
0.6981
0.698072
0.58372
0.583689
0.58427
0.584239
0.719372
0.764969
0.720101
0.765812
0.603971
0.646953
0.604566
0.647643
0.83704
0.876351
0.838049
0.877474
0.717295
0.754308
0.718121
0.755233
0.873056
0.83401
0.874941
0.835767
0.751588
0.714789
0.753181
0.716269
0.762291
0.716887
0.76388
0.718362
0.644725
0.601888
0.646064
0.603132
0.694973
0.694945
0.696392
0.696364
0.581642
0.581612
0.582839
0.582809
0.716808
0.762175
0.718282
0.763762
0.601801
0.644593
0.603045
0.645931
0.833883
0.872937
0.835638
0.874815
0.714633
0.751423
0.716111
0.75301
0.868242
0.829476
0.870808
0.831902
0.747473
0.710923
0.749664
0.712989
0.758128
0.712961
0.760382
0.715098
0.641173
0.598536
0.643092
0.600355
0.691163
0.691135
0.693242
0.693214
0.578387
0.578357
0.580157
0.580128
0.712883
0.758014
0.715019
0.760267
0.598451
0.641043
0.600269
0.642961
0.829353
0.868127
0.831776
0.870686
0.710769
0.747312
0.712833
0.749497
0.862153
0.823693
0.865344
0.826731
0.742237
0.705962
0.744977
0.708564
0.752725
0.707803
0.755585
0.710542
0.636541
0.594113
0.638988
0.596456
0.686125
0.686097
0.688804
0.688777
0.574067
0.574037
0.576358
0.576328
0.707726
0.752613
0.710465
0.755472
0.594029
0.636413
0.596371
0.638859
0.823573
0.862042
0.826608
0.865226
0.705812
0.742079
0.708411
0.744813
0.854882
0.816754
0.858654
0.82036
0.735959
0.69999
0.739212
0.703089
0.746177
0.701508
0.7496
0.704806
0.630911
0.588704
0.633848
0.591531
0.679955
0.679928
0.683189
0.683163
0.568765
0.568736
0.571538
0.571509
0.701433
0.746068
0.70473
0.749489
0.588621
0.630785
0.591448
0.633721
0.816637
0.854774
0.82024
0.85854
0.699842
0.735805
0.702939
0.739052
0.846492
0.808727
0.850817
0.81287
0.728696
0.693064
0.732436
0.696634
0.738553
0.694146
0.742507
0.69797
0.624343
0.582367
0.627743
0.585652
0.672722
0.672696
0.676481
0.676455
0.562542
0.562513
0.565769
0.565741
0.694072
0.738446
0.697896
0.742398
0.582286
0.62422
0.58557
0.627619
0.808612
0.846388
0.812753
0.850706
0.692919
0.728546
0.696487
0.732279
0.837028
0.799654
0.841886
0.804315
0.720487
0.685222
0.724696
0.689246
0.729896
0.68576
0.734362
0.690092
0.616876
0.575142
0.620722
0.578867
0.66447
0.664445
0.668734
0.668709
0.555435
0.555407
0.559101
0.559073
0.685688
0.729791
0.690019
0.734256
0.575062
0.616755
0.578787
0.6206
0.799543
0.836927
0.804202
0.841778
0.68508
0.720339
0.689102
0.724543
0.826516
0.789563
0.831896
0.794731
0.711352
0.676487
0.716023
0.680955
0.720231
0.676375
0.725199
0.681204
0.608531
0.567048
0.612814
0.571206
0.655223
0.655198
0.659983
0.659958
0.547466
0.547439
0.551562
0.551534
0.676304
0.720129
0.681133
0.725095
0.56697
0.608412
0.571127
0.612694
0.789454
0.826418
0.79462
0.831791
0.676348
0.711208
0.680814
0.715872
0.814967
0.778461
0.820865
0.784135
0.701303
0.666865
0.706431
0.671777
0.709565
0.665995
0.715034
0.671322
0.599313
0.558092
0.604033
0.562682
0.644985
0.644961
0.650241
0.650216
0.538639
0.538612
0.543164
0.543137
0.665925
0.709465
0.671252
0.714932
0.558016
0.599197
0.562604
0.603915
0.778354
0.814871
0.784026
0.820763
0.666729
0.701162
0.671639
0.706284
0.802381
0.766342
0.808798
0.772525
0.690338
0.656354
0.695924
0.661712
0.697889
0.65461
0.703864
0.660441
0.589217
0.548265
0.594377
0.553292
0.633746
0.633722
0.639504
0.63948
0.528945
0.528919
0.533905
0.533879
0.654542
0.697791
0.660372
0.703765
0.54819
0.589103
0.553216
0.594262
0.766238
0.802287
0.772419
0.808698
0.656221
0.690201
0.661577
0.69578
0.788745
0.753192
0.795689
0.759893
0.678449
0.64494
0.684499
0.650752
0.685183
0.642197
0.691676
0.648546
0.578225
0.537548
0.583836
0.543023
0.621479
0.621456
0.627755
0.627731
0.518364
0.518338
0.52377
0.523745
0.64213
0.685086
0.648478
0.691578
0.537474
0.578113
0.542948
0.583723
0.75309
0.788653
0.759789
0.795591
0.64481
0.678314
0.650619
0.684358
0.77404
0.738982
0.781521
0.746217
0.665619
0.632602
0.672141
0.638879
0.671414
0.62872
0.678443
0.635606
0.56631
0.52591
0.572386
0.531849
0.60815
0.608127
0.614962
0.614938
0.506865
0.506839
0.512734
0.512709
0.628654
0.671318
0.635539
0.678346
0.525838
0.5662
0.531776
0.572275
0.738881
0.77395
0.746115
0.781425
0.632474
0.665487
0.638749
0.672004
0.758242
0.723685
0.766273
0.731466
0.651825
0.619309
0.658832
0.626067
0.656542
0.614135
0.664127
0.62158
0.553437
0.513314
0.559997
0.519738
0.593709
0.593686
0.601083
0.60106
0.494407
0.494382
0.500762
0.500737
0.61407
0.656448
0.621515
0.664032
0.513243
0.553329
0.519666
0.559888
0.723585
0.758152
0.731365
0.766179
0.619183
0.651696
0.62594
0.658698
0.741309
0.707255
0.749912
0.71561
0.63704
0.605021
0.644548
0.612282
0.640515
0.598383
0.648685
0.606419
0.539561
0.499711
0.546629
0.506645
0.578098
0.578075
0.586064
0.586041
0.480942
0.480918
0.487807
0.487782
0.598319
0.640422
0.606354
0.648591
0.499641
0.539455
0.506574
0.546522
0.707156
0.74122
0.715511
0.749819
0.604898
0.636913
0.612157
0.644416
0.723203
0.689634
0.732398
0.698591
0.621226
0.589697
0.629253
0.597482
0.623269
0.581396
0.632056
0.590058
0.524629
0.485043
0.532232
0.492517
0.561245
0.561222
0.569841
0.569819
0.466409
0.466385
0.473816
0.473792
0.581332
0.623177
0.589994
0.631964
0.484974
0.524525
0.492448
0.532127
0.689536
0.723114
0.698492
0.732305
0.589576
0.621101
0.59736
0.629123
0.703883
0.670772
0.713689
0.680356
0.604342
0.573284
0.612908
0.58162
0.604736
0.563094
0.614175
0.572424
0.508579
0.46924
0.516749
0.47729
0.543063
0.54304
0.552335
0.552312
0.450733
0.450709
0.458721
0.458697
0.563031
0.604645
0.57236
0.614084
0.469173
0.508478
0.477222
0.516646
0.670675
0.703794
0.680257
0.713596
0.573165
0.604219
0.581499
0.612781
0.683335
0.650629
0.693754
0.660856
0.586364
0.555739
0.595479
0.564645
0.584841
0.543374
0.594971
0.553427
0.491343
0.452214
0.500115
0.460888
0.523437
0.523415
0.533448
0.533425
0.433816
0.433793
0.442439
0.442416
0.543312
0.584751
0.553364
0.59488
0.452148
0.491244
0.460822
0.500014
0.650531
0.683245
0.660758
0.693661
0.555623
0.586243
0.564527
0.595354
0.661634
0.629204
0.672608
0.640067
0.567333
0.537046
0.576961
0.546525
0.563494
0.522088
0.574362
0.532948
0.472836
0.433833
0.482256
0.443206
0.502191
0.502169
0.51304
0.513018
0.415508
0.415486
0.424851
0.424828
0.522027
0.563405
0.532886
0.574273
0.43377
0.472739
0.443141
0.482157
0.629108
0.661544
0.63997
0.672515
0.536933
0.567215
0.54641
0.576839
0.6392
0.606589
0.650444
0.618031
0.547554
0.517244
0.557483
0.527271
0.540521
0.498946
0.552237
0.510784
0.45289
0.413848
0.463062
0.424067
0.479005
0.478984
0.490876
0.490854
0.395539
0.395517
0.405756
0.405734
0.498886
0.540434
0.510723
0.552149
0.413787
0.452796
0.424004
0.462967
0.606494
0.639112
0.617935
0.650352
0.517135
0.54744
0.527159
0.557365
0.617958
0.582674
0.628147
0.594841
0.528539
0.49612
0.537718
0.506899
0.515231
0.473295
0.528264
0.486503
0.43086
0.391694
0.442222
0.403097
0.453332
0.453312
0.466527
0.466507
0.373457
0.373437
0.384796
0.384776
0.473238
0.515147
0.486444
0.528178
0.391636
0.430772
0.403038
0.442131
0.582582
0.617872
0.594747
0.628057
0.496016
0.528432
0.506792
0.537605
0.608193
0.552252
0.610221
0.56944
0.518936
0.468704
0.52134
0.48427
0.484842
0.444022
0.500998
0.459174
0.404234
0.366447
0.418404
0.379499
0.424619
0.424599
0.439368
0.439349
0.348858
0.348839
0.361471
0.361452
0.443968
0.484763
0.459118
0.500916
0.366393
0.404153
0.379443
0.418319
0.552166
0.608114
0.569351
0.610135
0.468609
0.518838
0.48417
0.521234
0.297547
0.261951
0.214496
0.188363
0.269879
0.235875
0.189902
0.165604
0.188864
0.143978
0.122692
0.0838833
0.16484
0.121521
0.102798
0.0659632
0.123078
0.123051
0.066544
0.0665239
0.101442
0.10142
0.0495354
0.0495209
0.143895
0.188727
0.0838163
0.122571
0.121452
0.164725
0.065912
0.102702
0.261772
0.297344
0.188196
0.214299
0.235724
0.269705
0.165468
0.189738
0.432121
0.39071
0.36865
0.329168
0.395711
0.355532
0.336741
0.298635
0.311745
0.262297
0.252076
0.204186
0.277997
0.229842
0.22322
0.176727
0.238801
0.238765
0.181611
0.181579
0.207115
0.207084
0.154942
0.154915
0.262193
0.311581
0.204091
0.251923
0.229751
0.277851
0.176645
0.223088
0.390506
0.431897
0.328975
0.368435
0.355349
0.395508
0.298467
0.336551
0.544532
0.501307
0.490501
0.447959
0.499518
0.457331
0.449665
0.40825
0.420864
0.369976
0.368002
0.31765
0.37797
0.328214
0.329537
0.280397
0.34554
0.3455
0.293583
0.293545
0.304492
0.304456
0.257075
0.257041
0.36986
0.420686
0.31754
0.367829
0.328108
0.377806
0.280297
0.32938
0.50109
0.544297
0.447746
0.490268
0.457128
0.499295
0.408056
0.449449
0.640689
0.596877
0.594481
0.55087
0.58826
0.545324
0.545598
0.502942
0.516372
0.465071
0.470295
0.419118
0.465603
0.415267
0.423296
0.373169
0.440267
0.440226
0.39445
0.39441
0.391101
0.391063
0.349179
0.349141
0.464952
0.51619
0.419001
0.470114
0.415155
0.465431
0.373059
0.423126
0.596659
0.640457
0.55065
0.594244
0.545114
0.588033
0.502733
0.545369