/*--------------------------------*- C++ -*----------------------------------*\
  =========                 |
  \\      /  F ield         | OpenFOAM: The Open Source CFD Toolbox
   \\    /   O peration     | Website:  https://openfoam.org
    \\  /    A nd           | Version:  9
     \\/     M anipulation  |
\*---------------------------------------------------------------------------*/
FoamFile
{
    format      ascii;
    class       volScalarField;
    location    "4.15";
    object      p;
}
// * * * * * * * * * * * * * * * * * * * * * * * * * * * * * * * * * * * * * //

dimensions      [0 2 -2 0 0 0 0];

internalField   nonuniform List<scalar> 
36360
(
20.121
20.0854
20.1147
20.0896
20.0954
20.1043
20.0968
20.1002
20.0994
20.1003
20.0998
20.1003
20.0991
20.0994
20.0986
20.0991
20.1003
20.1003
20.1004
20.1004
20.0995
20.0995
20.0992
20.0992
20.1003
20.0994
20.1003
20.0998
20.0994
20.0991
20.0991
20.0986
20.0854
20.121
20.0896
20.1146
20.1043
20.0954
20.1002
20.0968
20.1103
20.0951
20.1156
20.0907
20.0776
20.1221
20.0871
20.1132
20.0996
20.0996
20.0994
20.1001
20.1001
20.0987
20.0995
20.0992
20.0997
20.0997
20.1001
20.1001
20.0988
20.0988
20.0993
20.0993
20.0996
20.0996
20.1001
20.0994
20.0987
20.1001
20.0992
20.0995
20.0951
20.1103
20.0907
20.1156
20.1221
20.0776
20.1132
20.0871
20.0996
20.1034
20.105
20.0994
20.0587
20.1391
20.0681
20.1309
20.102
20.0989
20.1005
20.0992
20.103
20.0982
20.1013
20.0984
20.0985
20.0985
20.0991
20.0991
20.0978
20.0978
20.0983
20.0983
20.0989
20.1019
20.0992
20.1005
20.0982
20.103
20.0984
20.1013
20.1033
20.0996
20.0994
20.105
20.1391
20.0588
20.1309
20.0681
20.0893
20.1098
20.0944
20.1068
20.0413
20.1531
20.0498
20.1465
20.1057
20.0989
20.1037
20.0988
20.1073
20.0984
20.105
20.0982
20.0975
20.0975
20.098
20.098
20.097
20.097
20.0974
20.0974
20.0989
20.1057
20.0988
20.1037
20.0984
20.1072
20.0982
20.105
20.1098
20.0893
20.1068
20.0944
20.153
20.0414
20.1465
20.0498
20.0801
20.1144
20.0846
20.1123
20.0262
20.1638
20.0335
20.1588
20.1097
20.0996
20.1077
20.0992
20.1119
20.0991
20.1095
20.0987
20.0968
20.0968
20.0971
20.0971
20.0964
20.0965
20.0967
20.0967
20.0996
20.1097
20.0992
20.1077
20.099
20.1117
20.0986
20.1096
20.1143
20.0801
20.1123
20.0846
20.1637
20.0262
20.1588
20.0335
20.0721
20.1173
20.076
20.116
20.0133
20.1717
20.0195
20.168
20.1136
20.1007
20.1117
20.1001
20.1162
20.1001
20.1141
20.0995
20.0965
20.0965
20.0966
20.0966
20.0962
20.0962
20.0963
20.0963
20.1007
20.1136
20.1001
20.1117
20.1001
20.1162
20.0996
20.1141
20.1173
20.0721
20.116
20.076
20.1717
20.0134
20.168
20.0195
20.0653
20.1192
20.0686
20.1184
20.0025
20.1775
20.0077
20.1749
20.117
20.102
20.1153
20.1013
20.12
20.1013
20.1182
20.1007
20.0964
20.0964
20.0964
20.0964
20.0962
20.0962
20.0962
20.0962
20.1019
20.117
20.1013
20.1153
20.1013
20.12
20.1007
20.1181
20.1191
20.0653
20.1184
20.0686
20.1775
20.0026
20.1748
20.0078
20.0595
20.1202
20.0623
20.1197
19.9935
20.1818
19.9978
20.1798
20.1198
20.1033
20.1185
20.1026
20.1232
20.1026
20.1216
20.102
20.0966
20.0966
20.0965
20.0965
20.0965
20.0965
20.0963
20.0963
20.1033
20.1198
20.1026
20.1185
20.1026
20.1231
20.102
20.1216
20.1202
20.0595
20.1197
20.0623
20.1817
19.9936
20.1798
19.9979
20.0546
20.1206
20.0569
20.1205
19.986
20.1848
19.9896
20.1834
20.1221
20.1045
20.121
20.1039
20.1257
20.1039
20.1245
20.1033
20.097
20.097
20.0968
20.0968
20.0969
20.0969
20.0967
20.0966
20.1045
20.1221
20.1039
20.121
20.1038
20.1257
20.1032
20.1245
20.1206
20.0546
20.1204
20.057
20.1848
19.986
20.1834
19.9896
20.0504
20.1207
20.0524
20.1207
19.9797
20.1869
19.9827
20.186
20.124
20.1056
20.1231
20.1051
20.1278
20.105
20.1268
20.1044
20.0975
20.0975
20.0972
20.0972
20.0974
20.0973
20.0971
20.0971
20.1056
20.1239
20.1051
20.1231
20.1049
20.1277
20.1044
20.1268
20.1207
20.0504
20.1207
20.0524
20.1869
19.9797
20.1859
19.9827
20.0469
20.1205
20.0486
20.1207
19.9745
20.1884
19.977
20.1877
20.1254
20.1066
20.1247
20.1062
20.1293
20.1059
20.1286
20.1055
20.098
20.098
20.0977
20.0977
20.0979
20.0979
20.0976
20.0976
20.1066
20.1253
20.1061
20.1247
20.1059
20.1293
20.1054
20.1286
20.1205
20.0469
20.1206
20.0486
20.1884
19.9745
20.1877
19.977
20.0439
20.1202
20.0453
20.1204
19.9701
20.1893
19.9722
20.1889
20.1264
20.1074
20.1259
20.107
20.1305
20.1067
20.13
20.1063
20.0985
20.0985
20.0982
20.0982
20.0984
20.0984
20.0981
20.0981
20.1074
20.1264
20.107
20.1259
20.1067
20.1305
20.1063
20.1299
20.1202
20.0439
20.1204
20.0453
20.1893
19.9702
20.1889
19.9723
20.0413
20.1198
20.0425
20.12
19.9665
20.1899
19.9682
20.1897
20.1272
20.1081
20.1268
20.1077
20.1313
20.1073
20.1309
20.107
20.099
20.099
20.0987
20.0987
20.0988
20.0988
20.0986
20.0986
20.108
20.1272
20.1077
20.1268
20.1073
20.1313
20.107
20.1309
20.1198
20.0413
20.12
20.0425
20.1899
19.9666
20.1896
19.9683
20.0391
20.1193
20.0401
20.1196
19.9635
20.1901
19.965
20.19
20.1277
20.1085
20.1275
20.1083
20.1318
20.1078
20.1316
20.1076
20.0994
20.0994
20.0992
20.0992
20.0991
20.0991
20.099
20.099
20.1085
20.1277
20.1083
20.1275
20.1078
20.1318
20.1076
20.1316
20.1193
20.0391
20.1196
20.0402
20.1901
19.9636
20.19
19.965
20.0372
20.1188
20.0381
20.1191
19.9611
20.1901
19.9622
20.1901
20.1279
20.1088
20.1278
20.1087
20.1321
20.1081
20.132
20.1079
20.0997
20.0997
20.0995
20.0995
20.0994
20.0994
20.0993
20.0993
20.1088
20.1279
20.1087
20.1278
20.1081
20.1321
20.1079
20.132
20.1188
20.0372
20.1191
20.0381
20.1901
19.9612
20.1901
19.9623
20.0356
20.1183
20.0364
20.1185
19.9591
20.1899
19.96
20.19
20.128
20.109
20.128
20.109
20.1322
20.1082
20.1322
20.1082
20.0999
20.0999
20.0998
20.0998
20.0995
20.0995
20.0995
20.0995
20.109
20.1279
20.1089
20.128
20.1082
20.1321
20.1081
20.1321
20.1183
20.0356
20.1185
20.0364
20.1898
19.9592
20.19
19.9601
20.0342
20.1177
20.0349
20.118
19.9575
20.1895
19.9582
20.1897
20.1278
20.1091
20.1279
20.1091
20.132
20.1082
20.1321
20.1082
20.1
20.1
20.0999
20.0999
20.0996
20.0996
20.0996
20.0996
20.1091
20.1278
20.1091
20.1279
20.1082
20.132
20.1082
20.1321
20.1177
20.0343
20.118
20.0349
20.1894
19.9576
20.1896
19.9583
20.0331
20.1172
20.0336
20.1174
19.9562
20.1889
19.9568
20.1892
20.1275
20.109
20.1277
20.1091
20.1317
20.1081
20.1319
20.1082
20.1
20.1
20.1
20.1
20.0995
20.0995
20.0996
20.0996
20.109
20.1275
20.1091
20.1277
20.1081
20.1317
20.1082
20.1319
20.1172
20.0331
20.1174
20.0337
20.1889
19.9563
20.1892
19.9569
20.0321
20.1166
20.0326
20.1169
19.9553
20.1882
19.9557
20.1886
20.1272
20.1089
20.1274
20.109
20.1313
20.1079
20.1315
20.108
20.1
20.1
20.1
20.1
20.0994
20.0994
20.0995
20.0995
20.1089
20.1271
20.109
20.1273
20.1079
20.1313
20.108
20.1315
20.1166
20.0322
20.1169
20.0326
20.1882
19.9553
20.1885
19.9558
20.0314
20.1161
20.0317
20.1164
19.9546
20.1874
19.9549
20.1878
20.1267
20.1087
20.1269
20.1088
20.1308
20.1076
20.1311
20.1077
20.0998
20.0998
20.0999
20.0999
20.0992
20.0992
20.0993
20.0993
20.1087
20.1267
20.1088
20.1269
20.1076
20.1308
20.1077
20.131
20.1161
20.0314
20.1163
20.0317
20.1874
19.9546
20.1878
19.955
20.0307
20.1156
20.031
20.1158
19.9541
20.1866
19.9543
20.187
20.1262
20.1084
20.1264
20.1085
20.1301
20.1072
20.1305
20.1074
20.0996
20.0996
20.0997
20.0997
20.0988
20.0988
20.099
20.099
20.1084
20.1262
20.1085
20.1264
20.1072
20.1301
20.1074
20.1304
20.1155
20.0308
20.1158
20.031
20.1865
19.9542
20.187
19.9544
20.0303
20.1151
20.0305
20.1153
19.9539
20.1856
19.954
20.1861
20.1256
20.108
20.1259
20.1082
20.1294
20.1067
20.1298
20.1069
20.0994
20.0994
20.0995
20.0995
20.0985
20.0985
20.0987
20.0987
20.108
20.1256
20.1082
20.1259
20.1067
20.1294
20.1069
20.1298
20.115
20.0303
20.1153
20.0305
20.1856
19.954
20.186
19.9541
20.03
20.1146
20.0301
20.1148
19.954
20.1846
19.9539
20.1851
20.125
20.1076
20.1253
20.1078
20.1286
20.1062
20.129
20.1064
20.0992
20.0992
20.0993
20.0993
20.0981
20.0981
20.0983
20.0983
20.1076
20.125
20.1078
20.1253
20.1062
20.1286
20.1064
20.129
20.1146
20.0301
20.1148
20.0302
20.1845
19.954
20.1851
19.954
20.0299
20.1141
20.03
20.1144
19.9542
20.1835
19.9541
20.184
20.1243
20.1072
20.1247
20.1074
20.1278
20.1056
20.1282
20.1059
20.0989
20.0989
20.099
20.099
20.0977
20.0977
20.0979
20.0979
20.1072
20.1243
20.1074
20.1247
20.1056
20.1277
20.1059
20.1282
20.1141
20.03
20.1144
20.03
20.1834
19.9543
20.184
19.9541
20.03
20.1137
20.0299
20.1139
19.9547
20.1823
19.9544
20.1829
20.1237
20.1069
20.124
20.1071
20.1269
20.105
20.1273
20.1053
20.0987
20.0987
20.0988
20.0988
20.0973
20.0973
20.0975
20.0975
20.1069
20.1237
20.107
20.124
20.105
20.1268
20.1053
20.1273
20.1137
20.03
20.1139
20.03
20.1823
19.9548
20.1829
19.9545
20.0303
20.1134
20.0301
20.1136
19.9555
20.1811
19.9551
20.1817
20.123
20.1065
20.1234
20.1067
20.1259
20.1045
20.1264
20.1047
20.0985
20.0985
20.0986
20.0986
20.0969
20.0969
20.0971
20.0971
20.1065
20.123
20.1067
20.1234
20.1045
20.1259
20.1047
20.1264
20.1134
20.0303
20.1136
20.0301
20.1811
19.9556
20.1817
19.9551
20.0307
20.1131
20.0305
20.1132
19.9565
20.1799
19.956
20.1805
20.1224
20.1062
20.1227
20.1063
20.125
20.1039
20.1255
20.1042
20.0984
20.0984
20.0985
20.0985
20.0966
20.0965
20.0967
20.0967
20.1062
20.1224
20.1063
20.1227
20.1039
20.125
20.1042
20.1255
20.1131
20.0308
20.1132
20.0305
20.1799
19.9566
20.1805
19.956
20.0314
20.1129
20.0311
20.113
19.9578
20.1787
19.9571
20.1793
20.1218
20.1059
20.1221
20.1061
20.1241
20.1035
20.1245
20.1037
20.0984
20.0984
20.0984
20.0984
20.0963
20.0963
20.0964
20.0964
20.1059
20.1218
20.106
20.1221
20.1035
20.1241
20.1037
20.1245
20.1129
20.0315
20.113
20.0311
20.1786
19.9579
20.1793
19.9572
20.0323
20.1127
20.0319
20.1128
19.9594
20.1774
19.9586
20.178
20.1213
20.1058
20.1215
20.1058
20.1232
20.1031
20.1236
20.1033
20.0985
20.0985
20.0985
20.0985
20.0962
20.0962
20.0962
20.0962
20.1058
20.1213
20.1058
20.1215
20.1031
20.1232
20.1032
20.1236
20.1127
20.0324
20.1128
20.0319
20.1774
19.9595
20.178
19.9587
20.0335
20.1125
20.0329
20.1126
19.9614
20.1761
19.9604
20.1767
20.1208
20.1057
20.121
20.1057
20.1223
20.1028
20.1228
20.1029
20.0988
20.0988
20.0986
20.0986
20.0962
20.0962
20.0962
20.0962
20.1057
20.1208
20.1057
20.121
20.1028
20.1223
20.1029
20.1227
20.1125
20.0335
20.1126
20.0329
20.176
19.9615
20.1767
19.9604
20.0349
20.1125
20.0342
20.1125
19.9637
20.1747
19.9625
20.1754
20.1203
20.1058
20.1205
20.1057
20.1216
20.1026
20.1219
20.1027
20.0991
20.0991
20.0989
20.0989
20.0963
20.0963
20.0962
20.0962
20.1058
20.1203
20.1057
20.1205
20.1026
20.1215
20.1027
20.1219
20.1125
20.0349
20.1125
20.0342
20.1747
19.9638
20.1754
19.9626
20.0365
20.1124
20.0357
20.1125
19.9664
20.1734
19.965
20.1741
20.12
20.106
20.1201
20.1059
20.1208
20.1027
20.1212
20.1026
20.0997
20.0997
20.0994
20.0994
20.0967
20.0967
20.0965
20.0965
20.106
20.1199
20.1059
20.1201
20.1027
20.1208
20.1026
20.1212
20.1124
20.0366
20.1125
20.0357
20.1733
19.9664
20.174
19.9651
20.0385
20.1124
20.0375
20.1124
19.9695
20.1719
19.9679
20.1726
20.1197
20.1063
20.1198
20.1061
20.1202
20.1028
20.1205
20.1027
20.1004
20.1004
20.1
20.1
20.0972
20.0972
20.0969
20.0969
20.1063
20.1196
20.1061
20.1198
20.1028
20.1202
20.1027
20.1205
20.1124
20.0385
20.1124
20.0375
20.1719
19.9695
20.1726
19.9679
20.0407
20.1124
20.0395
20.1125
19.973
20.1704
19.9712
20.1711
20.1195
20.1068
20.1196
20.1066
20.1198
20.1032
20.12
20.103
20.1012
20.1012
20.1008
20.1008
20.0979
20.0979
20.0975
20.0975
20.1068
20.1195
20.1066
20.1195
20.1032
20.1197
20.103
20.12
20.1124
20.0407
20.1124
20.0395
20.1703
19.9731
20.1711
19.9712
20.0431
20.1124
20.0419
20.1124
19.977
20.1687
19.975
20.1695
20.1194
20.1075
20.1194
20.1072
20.1194
20.1038
20.1196
20.1035
20.1022
20.1022
20.1017
20.1017
20.0988
20.0988
20.0983
20.0983
20.1075
20.1194
20.1072
20.1194
20.1038
20.1194
20.1035
20.1196
20.1124
20.0432
20.1124
20.0419
20.1686
19.9771
20.1695
19.975
20.0459
20.1124
20.0445
20.1124
19.9816
20.1667
19.9793
20.1677
20.1194
20.1083
20.1194
20.1079
20.1192
20.1046
20.1193
20.1042
20.1033
20.1033
20.1027
20.1027
20.0998
20.0998
20.0993
20.0993
20.1083
20.1194
20.1079
20.1194
20.1046
20.1192
20.1042
20.1193
20.1124
20.0459
20.1124
20.0445
20.1667
19.9817
20.1677
19.9793
20.0488
20.1124
20.0473
20.1124
19.987
20.1644
19.9842
20.1656
20.1196
20.1093
20.1195
20.1088
20.1192
20.1056
20.1192
20.1051
20.1046
20.1046
20.1039
20.1039
20.1011
20.1011
20.1004
20.1004
20.1093
20.1196
20.1088
20.1195
20.1056
20.1192
20.1051
20.1192
20.1124
20.0488
20.1124
20.0473
20.1644
19.987
20.1656
19.9843
20.051
20.1132
20.0501
20.1125
19.9934
20.1612
19.99
20.1629
20.1198
20.1104
20.1197
20.1098
20.1193
20.1067
20.1192
20.1061
20.1059
20.1059
20.1052
20.1052
20.1024
20.1024
20.1017
20.1017
20.1104
20.1198
20.1098
20.1197
20.1067
20.1193
20.1061
20.1192
20.1132
20.051
20.1125
20.0502
20.1612
19.9934
20.1629
19.9901
20.0529
20.1139
20.0509
20.1148
20.0007
20.1569
19.997
20.1593
20.1207
20.1118
20.1202
20.1111
20.1198
20.1082
20.1195
20.1074
20.1074
20.1074
20.1066
20.1066
20.104
20.104
20.1032
20.1032
20.1117
20.1207
20.111
20.1202
20.1082
20.1198
20.1074
20.1195
20.1139
20.0529
20.1148
20.0509
20.1569
20.0007
20.1593
19.9971
20.1429
20.0682
20.1263
20.0794
20.135
20.0728
20.1209
20.0823
20.0952
20.0999
20.0977
20.1001
20.0969
20.0997
20.0982
20.0995
20.1001
20.1001
20.1001
20.1001
20.0998
20.0998
20.0994
20.0994
20.1
20.0951
20.1001
20.0977
20.0998
20.0969
20.0995
20.0982
20.0682
20.1428
20.0794
20.1263
20.0728
20.135
20.0824
20.1209
20.1383
20.0768
20.1399
20.0733
20.1305
20.0798
20.1327
20.0768
20.0923
20.0987
20.0936
20.0995
20.0954
20.0991
20.0961
20.0996
20.0997
20.0997
20.1
20.1
20.0995
20.0995
20.0998
20.0998
20.0987
20.0923
20.0995
20.0936
20.0991
20.0954
20.0996
20.0961
20.0768
20.1383
20.0733
20.1399
20.0798
20.1305
20.0768
20.1327
20.1356
20.0808
20.137
20.0791
20.1257
20.0841
20.1282
20.0822
20.0922
20.0974
20.0919
20.098
20.0961
20.0983
20.0955
20.0987
20.0987
20.0987
20.0992
20.0992
20.0986
20.0986
20.0991
20.0991
20.0974
20.0922
20.098
20.0919
20.0983
20.0961
20.0987
20.0955
20.0808
20.1356
20.0791
20.1369
20.0841
20.1257
20.0822
20.1282
20.1331
20.0824
20.1343
20.0819
20.1208
20.0867
20.1232
20.0856
20.0934
20.097
20.0927
20.0971
20.0981
20.0982
20.097
20.0982
20.0976
20.0976
20.0981
20.0981
20.0976
20.0976
20.0981
20.0981
20.097
20.0934
20.0971
20.0927
20.0982
20.0981
20.0982
20.097
20.0824
20.1331
20.0819
20.1343
20.0867
20.1208
20.0856
20.1232
20.1309
20.0826
20.132
20.0827
20.1163
20.0878
20.1185
20.0874
20.0949
20.0973
20.0941
20.0971
20.1008
20.0987
20.0994
20.0984
20.0968
20.0968
20.0972
20.0972
20.0969
20.0969
20.0972
20.0972
20.0972
20.0949
20.0971
20.0941
20.0986
20.1008
20.0984
20.0994
20.0826
20.1309
20.0827
20.132
20.0878
20.1163
20.0874
20.1185
20.129
20.082
20.13
20.0824
20.1124
20.0879
20.1143
20.0879
20.0964
20.0979
20.0957
20.0975
20.1033
20.0995
20.1021
20.099
20.0965
20.0965
20.0966
20.0966
20.0966
20.0966
20.0967
20.0967
20.0979
20.0964
20.0975
20.0957
20.0995
20.1033
20.099
20.1021
20.082
20.129
20.0824
20.1299
20.0879
20.1124
20.0879
20.1143
20.1273
20.081
20.1281
20.0815
20.1089
20.0876
20.1106
20.0878
20.0975
20.0988
20.097
20.0983
20.1053
20.1006
20.1043
20.1001
20.0965
20.0965
20.0965
20.0965
20.0966
20.0966
20.0966
20.0966
20.0988
20.0975
20.0983
20.097
20.1006
20.1053
20.1
20.1043
20.081
20.1273
20.0815
20.1281
20.0876
20.1089
20.0878
20.1106
20.1258
20.0798
20.1265
20.0804
20.1059
20.0868
20.1074
20.0872
20.0984
20.0997
20.098
20.0992
20.1069
20.1018
20.1061
20.1012
20.0969
20.0969
20.0967
20.0967
20.097
20.097
20.0968
20.0968
20.0997
20.0984
20.0992
20.098
20.1017
20.1069
20.1012
20.1061
20.0798
20.1257
20.0804
20.1265
20.0869
20.1059
20.0872
20.1074
20.1244
20.0785
20.1251
20.0791
20.1033
20.0859
20.1046
20.0864
20.099
20.1006
20.0987
20.1001
20.1081
20.1029
20.1075
20.1023
20.0974
20.0974
20.0971
20.0971
20.0975
20.0974
20.0972
20.0972
20.1006
20.099
20.1001
20.0987
20.1029
20.1081
20.1023
20.1075
20.0785
20.1243
20.0791
20.125
20.0859
20.1033
20.0864
20.1046
20.1231
20.0773
20.1237
20.0779
20.101
20.085
20.1022
20.0855
20.0994
20.1014
20.0993
20.101
20.109
20.1039
20.1086
20.1034
20.098
20.098
20.0977
20.0977
20.098
20.098
20.0977
20.0977
20.1014
20.0994
20.101
20.0993
20.1039
20.109
20.1034
20.1086
20.0773
20.123
20.0779
20.1237
20.085
20.101
20.0855
20.1021
20.1219
20.0761
20.1224
20.0767
20.099
20.084
20.1
20.0845
20.0996
20.1022
20.0995
20.1018
20.1096
20.1048
20.1093
20.1043
20.0986
20.0986
20.0983
20.0983
20.0986
20.0986
20.0983
20.0983
20.1022
20.0996
20.1018
20.0995
20.1048
20.1096
20.1043
20.1093
20.0761
20.1218
20.0767
20.1224
20.084
20.099
20.0845
20.1
20.1207
20.0751
20.1213
20.0756
20.0973
20.083
20.0981
20.0835
20.0997
20.1028
20.0997
20.1025
20.11
20.1055
20.1098
20.1052
20.0992
20.0992
20.0989
20.0989
20.0992
20.0992
20.0989
20.0989
20.1028
20.0997
20.1025
20.0997
20.1055
20.11
20.1052
20.1098
20.0751
20.1207
20.0756
20.1212
20.083
20.0972
20.0835
20.0981
20.1197
20.0741
20.1202
20.0746
20.0957
20.0821
20.0964
20.0825
20.0997
20.1033
20.0997
20.1031
20.1102
20.1062
20.1101
20.1059
20.0997
20.0997
20.0995
20.0995
20.0997
20.0997
20.0995
20.0995
20.1033
20.0996
20.1031
20.0997
20.1061
20.1101
20.1059
20.1101
20.0741
20.1196
20.0746
20.1201
20.0821
20.0956
20.0826
20.0964
20.1187
20.0732
20.1192
20.0736
20.0943
20.0813
20.0949
20.0817
20.0996
20.1038
20.0996
20.1036
20.1103
20.1066
20.1102
20.1064
20.1002
20.1002
20.1
20.1
20.1002
20.1002
20.0999
20.0999
20.1038
20.0996
20.1036
20.0996
20.1066
20.1103
20.1064
20.1102
20.0732
20.1186
20.0737
20.1191
20.0813
20.0942
20.0817
20.0949
20.1177
20.0724
20.1182
20.0728
20.093
20.0805
20.0936
20.0809
20.0994
20.1041
20.0995
20.1039
20.1103
20.107
20.1103
20.1068
20.1006
20.1006
20.1004
20.1004
20.1005
20.1005
20.1003
20.1003
20.1041
20.0994
20.1039
20.0995
20.107
20.1103
20.1068
20.1103
20.0724
20.1177
20.0728
20.1182
20.0805
20.093
20.0809
20.0936
20.1169
20.0717
20.1173
20.072
20.0918
20.0797
20.0924
20.0801
20.0993
20.1043
20.0994
20.1042
20.1103
20.1072
20.1103
20.1071
20.1009
20.1008
20.1007
20.1007
20.1007
20.1007
20.1006
20.1006
20.1043
20.0993
20.1042
20.0994
20.1072
20.1103
20.1071
20.1103
20.0717
20.1168
20.072
20.1172
20.0798
20.0918
20.0801
20.0924
20.116
20.0711
20.1164
20.0714
20.0908
20.0791
20.0913
20.0794
20.0991
20.1044
20.0992
20.1044
20.1103
20.1073
20.1103
20.1073
20.101
20.101
20.101
20.101
20.1009
20.1009
20.1008
20.1008
20.1044
20.0991
20.1044
20.0992
20.1073
20.1103
20.1073
20.1103
20.0711
20.116
20.0714
20.1164
20.0791
20.0908
20.0794
20.0913
20.1153
20.0705
20.1156
20.0708
20.0899
20.0785
20.0904
20.0788
20.0989
20.1045
20.099
20.1045
20.1102
20.1074
20.1103
20.1074
20.1012
20.1012
20.1011
20.1011
20.101
20.101
20.1009
20.1009
20.1045
20.0989
20.1045
20.099
20.1073
20.1102
20.1073
20.1103
20.0705
20.1152
20.0708
20.1156
20.0785
20.0899
20.0788
20.0903
20.1146
20.07
20.1149
20.0703
20.0891
20.078
20.0895
20.0782
20.0988
20.1045
20.0989
20.1045
20.11
20.1073
20.1101
20.1073
20.1012
20.1012
20.1012
20.1012
20.101
20.101
20.101
20.101
20.1045
20.0988
20.1045
20.0989
20.1073
20.11
20.1073
20.1101
20.07
20.1145
20.0703
20.1149
20.078
20.0891
20.0783
20.0895
20.1139
20.0697
20.1142
20.0698
20.0884
20.0775
20.0888
20.0778
20.0985
20.1044
20.0987
20.1045
20.1099
20.1072
20.1099
20.1072
20.1013
20.1013
20.1013
20.1013
20.1009
20.1009
20.101
20.101
20.1044
20.0985
20.1045
20.0987
20.1072
20.1099
20.1072
20.1099
20.0697
20.1139
20.0698
20.1142
20.0776
20.0884
20.0778
20.0887
20.1134
20.0694
20.1137
20.0695
20.0878
20.0772
20.0881
20.0773
20.0983
20.1044
20.0984
20.1044
20.1097
20.107
20.1098
20.1071
20.1012
20.1012
20.1013
20.1013
20.1008
20.1008
20.1009
20.1009
20.1044
20.0983
20.1044
20.0984
20.107
20.1097
20.1071
20.1098
20.0694
20.1134
20.0695
20.1136
20.0772
20.0878
20.0774
20.0881
20.1129
20.0692
20.1132
20.0692
20.0873
20.0769
20.0876
20.077
20.0982
20.1043
20.0983
20.1043
20.1095
20.1068
20.1096
20.1069
20.1012
20.1012
20.1012
20.1012
20.1007
20.1007
20.1008
20.1008
20.1043
20.0982
20.1043
20.0983
20.1068
20.1094
20.1069
20.1096
20.0692
20.1129
20.0693
20.1131
20.0769
20.0873
20.077
20.0875
20.1126
20.069
20.1127
20.0691
20.087
20.0766
20.0871
20.0767
20.0981
20.1042
20.0981
20.1042
20.1092
20.1066
20.1093
20.1067
20.1012
20.1012
20.1012
20.1012
20.1006
20.1006
20.1007
20.1007
20.1042
20.0981
20.1042
20.0981
20.1066
20.1092
20.1067
20.1093
20.0691
20.1125
20.0691
20.1127
20.0767
20.087
20.0768
20.0871
20.1123
20.069
20.1124
20.069
20.0867
20.0765
20.0868
20.0766
20.098
20.1041
20.098
20.1041
20.109
20.1064
20.1091
20.1065
20.1012
20.1012
20.1012
20.1012
20.1005
20.1005
20.1006
20.1006
20.1041
20.098
20.1041
20.098
20.1064
20.109
20.1065
20.1091
20.069
20.1122
20.069
20.1124
20.0765
20.0867
20.0766
20.0868
20.1121
20.0691
20.1122
20.0691
20.0866
20.0764
20.0867
20.0765
20.098
20.1041
20.098
20.1041
20.1088
20.1062
20.1089
20.1063
20.1012
20.1012
20.1012
20.1012
20.1004
20.1004
20.1005
20.1005
20.1041
20.098
20.1041
20.098
20.1062
20.1088
20.1063
20.1089
20.0691
20.112
20.0691
20.1121
20.0765
20.0866
20.0765
20.0866
20.112
20.0693
20.112
20.0692
20.0866
20.0765
20.0866
20.0765
20.098
20.1041
20.098
20.1041
20.1086
20.106
20.1087
20.1061
20.1013
20.1013
20.1013
20.1013
20.1004
20.1004
20.1004
20.1004
20.1041
20.098
20.1041
20.098
20.106
20.1086
20.1061
20.1087
20.0693
20.112
20.0692
20.112
20.0765
20.0866
20.0765
20.0866
20.1121
20.0696
20.112
20.0694
20.0868
20.0766
20.0867
20.0765
20.0981
20.1041
20.098
20.1041
20.1085
20.1059
20.1085
20.106
20.1015
20.1015
20.1014
20.1014
20.1005
20.1005
20.1004
20.1004
20.1041
20.0981
20.1041
20.098
20.1059
20.1085
20.106
20.1085
20.0696
20.112
20.0694
20.112
20.0766
20.0868
20.0765
20.0867
20.1122
20.0702
20.1121
20.0699
20.0871
20.0768
20.0869
20.0767
20.0983
20.1043
20.0982
20.1042
20.1084
20.1059
20.1084
20.1059
20.1018
20.1018
20.1016
20.1016
20.1006
20.1006
20.1005
20.1005
20.1043
20.0983
20.1042
20.0982
20.1059
20.1084
20.1059
20.1084
20.0703
20.1121
20.0699
20.1121
20.0768
20.0871
20.0767
20.0869
20.1124
20.071
20.1123
20.0706
20.0876
20.0771
20.0873
20.0769
20.0985
20.1045
20.0984
20.1044
20.1083
20.106
20.1084
20.1059
20.1021
20.1021
20.1019
20.1019
20.1009
20.1009
20.1008
20.1007
20.1045
20.0985
20.1044
20.0984
20.106
20.1083
20.1059
20.1083
20.071
20.1124
20.0706
20.1122
20.0771
20.0875
20.077
20.0873
20.1127
20.0719
20.1126
20.0714
20.0882
20.0774
20.0878
20.0772
20.0988
20.1048
20.0986
20.1046
20.1084
20.1061
20.1083
20.106
20.1026
20.1026
20.1023
20.1023
20.1013
20.1013
20.1011
20.1011
20.1048
20.0988
20.1046
20.0986
20.1061
20.1084
20.106
20.1083
20.0719
20.1127
20.0714
20.1125
20.0774
20.0882
20.0772
20.0878
20.1132
20.0726
20.1129
20.0724
20.0889
20.078
20.0885
20.0775
20.0992
20.1053
20.099
20.105
20.1085
20.1064
20.1084
20.1063
20.1032
20.1032
20.1029
20.1029
20.1018
20.1018
20.1015
20.1015
20.1052
20.0992
20.105
20.099
20.1064
20.1085
20.1063
20.1084
20.0726
20.1131
20.0724
20.1129
20.078
20.0889
20.0775
20.0885
20.1137
20.0731
20.1134
20.0728
20.0898
20.0788
20.0894
20.0784
20.0997
20.1058
20.0994
20.1055
20.1086
20.1068
20.1085
20.1066
20.1039
20.1039
20.1035
20.1035
20.1024
20.1024
20.1021
20.1021
20.1058
20.0997
20.1055
20.0994
20.1068
20.1086
20.1066
20.1085
20.0731
20.1137
20.0728
20.1134
20.0788
20.0898
20.0784
20.0893
20.1142
20.0738
20.114
20.0734
20.0908
20.0797
20.0903
20.0792
20.1003
20.1065
20.1
20.1061
20.1089
20.1073
20.1087
20.107
20.1047
20.1047
20.1043
20.1043
20.1032
20.1032
20.1028
20.1028
20.1064
20.1003
20.1061
20.1
20.1073
20.1089
20.107
20.1087
20.0738
20.1142
20.0734
20.1139
20.0797
20.0908
20.0792
20.0903
20.1147
20.0746
20.1145
20.0742
20.0919
20.0805
20.0914
20.0801
20.1009
20.1072
20.1006
20.1068
20.1092
20.108
20.109
20.1076
20.1057
20.1057
20.1052
20.1052
20.1041
20.1041
20.1037
20.1037
20.1072
20.1009
20.1068
20.1006
20.108
20.1092
20.1076
20.109
20.0746
20.1147
20.0742
20.1145
20.0805
20.0919
20.0801
20.0914
20.1151
20.0757
20.1149
20.0751
20.0931
20.0815
20.0925
20.081
20.1017
20.1081
20.1013
20.1076
20.1096
20.1087
20.1094
20.1083
20.1067
20.1067
20.1062
20.1062
20.1051
20.1051
20.1046
20.1046
20.1081
20.1017
20.1076
20.1013
20.1087
20.1096
20.1083
20.1094
20.0757
20.115
20.0751
20.1149
20.0815
20.0931
20.081
20.0925
20.115
20.077
20.1151
20.0763
20.0941
20.0826
20.0936
20.082
20.1026
20.109
20.1021
20.1085
20.1102
20.1096
20.1099
20.1091
20.1078
20.1078
20.1072
20.1072
20.1062
20.1062
20.1057
20.1057
20.109
20.1026
20.1085
20.1021
20.1096
20.1102
20.1091
20.1099
20.077
20.115
20.0763
20.1151
20.0826
20.0941
20.082
20.0936
20.1142
20.079
20.1147
20.0779
20.0948
20.084
20.0945
20.0833
20.1036
20.11
20.1031
20.1095
20.1108
20.1105
20.1105
20.11
20.1089
20.1089
20.1084
20.1084
20.1074
20.1074
20.1068
20.1068
20.11
20.1036
20.1095
20.1031
20.1105
20.1108
20.11
20.1105
20.079
20.1141
20.0779
20.1147
20.084
20.0947
20.0833
20.0945
20.1103
20.0837
20.113
20.0807
20.0935
20.0872
20.0947
20.0851
20.1048
20.1112
20.1041
20.1106
20.1115
20.1117
20.1111
20.1111
20.1101
20.1101
20.1095
20.1095
20.1087
20.1087
20.108
20.108
20.1112
20.1048
20.1106
20.1041
20.1117
20.1115
20.1111
20.1111
20.0837
20.1103
20.0807
20.113
20.0872
20.0935
20.0851
20.0947
20.1182
20.0764
20.1067
20.0876
20.0996
20.0828
20.0914
20.0902
20.106
20.1128
20.1057
20.112
20.1126
20.1131
20.1122
20.1124
20.1113
20.1113
20.1108
20.1108
20.11
20.11
20.1093
20.1093
20.1128
20.106
20.112
20.1057
20.1131
20.1126
20.1123
20.1122
20.0764
20.1182
20.0876
20.1067
20.0828
20.0996
20.0902
20.0914
20.1533
20.062
20.1335
20.0745
20.1487
20.0644
20.1302
20.0765
20.0912
20.0994
20.0956
20.0999
20.093
20.0996
20.0965
20.0999
20.1001
20.1001
20.1001
20.1001
20.1
20.1
20.0999
20.0999
20.0994
20.0912
20.0999
20.0956
20.0996
20.093
20.0999
20.0966
20.0621
20.1533
20.0745
20.1334
20.0644
20.1486
20.0765
20.1302
20.1456
20.0769
20.1481
20.071
20.1429
20.0761
20.1447
20.0715
20.0872
20.0966
20.089
20.0982
20.0894
20.0976
20.091
20.0989
20.0996
20.0996
20.1
20.1
20.0996
20.0996
20.0999
20.0999
20.0966
20.0872
20.0982
20.089
20.0976
20.0894
20.0989
20.0911
20.0769
20.1456
20.071
20.148
20.0761
20.1428
20.0715
20.1447
20.1428
20.0836
20.1441
20.0808
20.1404
20.0814
20.1416
20.0792
20.0863
20.0943
20.0864
20.0953
20.0886
20.0959
20.0887
20.0966
20.0982
20.0982
20.099
20.099
20.0985
20.0985
20.0992
20.0992
20.0943
20.0863
20.0953
20.0864
20.0959
20.0886
20.0966
20.0887
20.0836
20.1427
20.0808
20.144
20.0814
20.1404
20.0792
20.1416
20.1408
20.0867
20.1417
20.0855
20.1385
20.0836
20.1394
20.0828
20.0869
20.0933
20.0865
20.0937
20.0894
20.0951
20.0889
20.0953
20.0966
20.0966
20.0974
20.0974
20.0973
20.0973
20.0979
20.0979
20.0933
20.0869
20.0937
20.0865
20.0951
20.0894
20.0953
20.0889
20.0867
20.1408
20.0855
20.1417
20.0836
20.1385
20.0828
20.1394
20.1394
20.0879
20.1401
20.0875
20.137
20.0842
20.1377
20.0841
20.0877
20.0929
20.0873
20.093
20.0904
20.095
20.0899
20.095
20.0955
20.0955
20.096
20.096
20.0964
20.0963
20.0968
20.0968
20.0929
20.0877
20.093
20.0873
20.095
20.0904
20.095
20.0899
20.0879
20.1394
20.0875
20.14
20.0842
20.137
20.0841
20.1377
20.1382
20.0881
20.1388
20.0881
20.1358
20.0839
20.1364
20.0841
20.0884
20.093
20.0881
20.0929
20.0913
20.0954
20.0909
20.0952
20.095
20.095
20.0952
20.0952
20.0959
20.0959
20.0961
20.0961
20.093
20.0884
20.0929
20.0881
20.0954
20.0913
20.0952
20.0909
20.0881
20.1382
20.0881
20.1388
20.0839
20.1357
20.0841
20.1363
20.1372
20.0878
20.1377
20.088
20.1346
20.0831
20.1352
20.0836
20.0888
20.0933
20.0886
20.0931
20.0918
20.096
20.0916
20.0957
20.0948
20.0948
20.0948
20.0948
20.0959
20.0959
20.0958
20.0958
20.0933
20.0888
20.0931
20.0886
20.096
20.0918
20.0957
20.0916
20.0878
20.1372
20.088
20.1377
20.0831
20.1346
20.0836
20.1351
20.1363
20.0872
20.1368
20.0875
20.1336
20.0822
20.1341
20.0827
20.089
20.0938
20.0889
20.0935
20.0922
20.0967
20.0921
20.0964
20.095
20.095
20.0949
20.0949
20.0961
20.0961
20.096
20.096
20.0938
20.089
20.0935
20.0889
20.0967
20.0922
20.0964
20.0921
20.0872
20.1363
20.0875
20.1367
20.0822
20.1335
20.0827
20.1341
20.1354
20.0865
20.1359
20.0868
20.1326
20.0811
20.1331
20.0816
20.0891
20.0942
20.0891
20.094
20.0925
20.0974
20.0924
20.0971
20.0954
20.0954
20.0952
20.0952
20.0966
20.0966
20.0964
20.0964
20.0942
20.0891
20.094
20.0891
20.0974
20.0925
20.0971
20.0924
20.0865
20.1354
20.0868
20.1358
20.0811
20.1326
20.0816
20.133
20.1346
20.0857
20.135
20.0861
20.1316
20.08
20.1321
20.0806
20.0891
20.0946
20.0891
20.0944
20.0926
20.098
20.0925
20.0977
20.0959
20.0959
20.0957
20.0957
20.0972
20.0972
20.0969
20.0969
20.0946
20.0891
20.0944
20.0891
20.098
20.0926
20.0977
20.0925
20.0857
20.1345
20.0861
20.135
20.08
20.1316
20.0806
20.1321
20.1337
20.0849
20.1342
20.0853
20.1307
20.079
20.1312
20.0795
20.089
20.095
20.0891
20.0948
20.0925
20.0986
20.0926
20.0983
20.0965
20.0965
20.0962
20.0962
20.0978
20.0978
20.0975
20.0975
20.095
20.089
20.0948
20.0891
20.0986
20.0925
20.0983
20.0926
20.0849
20.1337
20.0853
20.1341
20.079
20.1307
20.0795
20.1311
20.1329
20.0841
20.1333
20.0845
20.1298
20.0781
20.1303
20.0785
20.0889
20.0954
20.089
20.0952
20.0925
20.099
20.0925
20.0988
20.097
20.097
20.0968
20.0967
20.0984
20.0984
20.0981
20.0981
20.0954
20.0889
20.0952
20.089
20.099
20.0925
20.0988
20.0925
20.0841
20.1329
20.0845
20.1333
20.0781
20.1298
20.0785
20.1302
20.1322
20.0833
20.1325
20.0837
20.129
20.0772
20.1294
20.0776
20.0888
20.0957
20.0888
20.0955
20.0923
20.0994
20.0924
20.0992
20.0975
20.0975
20.0973
20.0973
20.0989
20.0989
20.0987
20.0987
20.0957
20.0888
20.0955
20.0888
20.0994
20.0923
20.0992
20.0924
20.0833
20.1321
20.0837
20.1325
20.0772
20.1289
20.0776
20.1294
20.1314
20.0826
20.1318
20.083
20.1282
20.0764
20.1286
20.0768
20.0886
20.0959
20.0887
20.0958
20.0922
20.0998
20.0923
20.0996
20.098
20.098
20.0977
20.0977
20.0994
20.0994
20.0992
20.0992
20.0959
20.0886
20.0958
20.0887
20.0998
20.0922
20.0996
20.0923
20.0826
20.1314
20.083
20.1317
20.0764
20.1281
20.0768
20.1285
20.1307
20.082
20.131
20.0823
20.1274
20.0756
20.1278
20.076
20.0884
20.0961
20.0885
20.096
20.092
20.1
20.0921
20.0999
20.0983
20.0983
20.0982
20.0982
20.0998
20.0998
20.0996
20.0996
20.0961
20.0884
20.096
20.0885
20.1
20.092
20.0999
20.0921
20.082
20.1306
20.0823
20.131
20.0756
20.1273
20.076
20.1277
20.13
20.0814
20.1303
20.0817
20.1266
20.075
20.127
20.0753
20.0883
20.0963
20.0883