/*--------------------------------*- C++ -*----------------------------------*\
  =========                 |
  \\      /  F ield         | OpenFOAM: The Open Source CFD Toolbox
   \\    /   O peration     | Website:  https://openfoam.org
    \\  /    A nd           | Version:  9
     \\/     M anipulation  |
\*---------------------------------------------------------------------------*/
FoamFile
{
    format      ascii;
    class       surfaceScalarField;
    location    "4.15";
    object      phi;
}
// * * * * * * * * * * * * * * * * * * * * * * * * * * * * * * * * * * * * * //

dimensions      [0 3 -1 0 0 0 0];

internalField   nonuniform List<scalar> 
104044
(
7.45651e-07
-7.01258e-05
-2.80646e-06
6.82272e-05
3.95941e-06
-4.49484e-05
-1.18036e-08
-2.91813e-07
4.71204e-05
-1.12278e-06
5.27903e-07
-5.19837e-06
5.29556e-06
1.14575e-06
-2.15298e-07
-1.83845e-06
-1.89646e-07
-8.44627e-05
8.18458e-05
-3.25555e-05
1.16382e-07
3.22377e-05
-7.29841e-08
3.42279e-08
-1.89838e-08
-4.94894e-05
-2.99257e-06
4.95585e-05
2.65067e-06
-5.16998e-05
-2.21799e-06
3.15622e-10
5.17402e-05
2.15829e-06
-1.12174e-08
-2.56543e-06
1.9487e-06
-2.03822e-06
-8.82065e-11
1.61195e-06
-6.71514e-09
-4.8393e-05
4.55235e-05
-5.49386e-05
-1.218e-09
5.27151e-05
-9.63606e-09
-2.60581e-09
4.94891e-13
-5.2792e-05
-1.76159e-06
5.28273e-05
1.72658e-06
-5.27926e-05
-1.76146e-06
-3.09788e-10
5.28278e-05
1.72653e-06
-2.65941e-13
-1.66026e-06
1.17548e-06
-1.66022e-06
9.10966e-11
1.1755e-06
4.1544e-13
-5.67071e-05
5.49443e-05
-5.67077e-05
1.22169e-09
5.49451e-05
-7.68099e-13
2.60519e-09
1.89907e-08
-5.17014e-05
-2.21759e-06
5.17416e-05
2.15804e-06
-4.94909e-05
-2.99242e-06
2.91752e-07
4.95599e-05
2.65075e-06
1.12181e-08
-2.03793e-06
1.61174e-06
-2.56524e-06
2.15234e-07
1.94866e-06
6.72429e-09
-5.4941e-05
5.27179e-05
-4.83985e-05
-1.16264e-07
4.5529e-05
9.63613e-09
-3.41704e-08
-7.45358e-07
-4.4948e-05
-1.40021e-08
4.71195e-05
-1.12041e-06
-7.01199e-05
-2.80482e-06
6.82223e-05
3.95701e-06
-5.27638e-07
1.14355e-06
-1.83626e-06
-5.19523e-06
5.292e-06
1.8936e-07
-3.25614e-05
3.22418e-05
-8.44486e-05
8.18331e-05
7.28259e-08
3.09201e-07
-6.63246e-05
-3.67045e-06
6.47045e-05
4.98138e-06
-4.85438e-05
3.28831e-06
-9.16402e-08
4.94238e-05
-3.76754e-06
5.09295e-07
-3.16047e-06
4.55376e-06
1.73646e-06
-1.78311e-07
-2.47218e-06
-9.2345e-07
-7.92274e-05
7.64805e-05
-3.31399e-05
4.61659e-07
3.50431e-05
-5.42071e-07
2.92179e-07
1.00049e-09
-4.95281e-05
-1.56469e-06
4.94511e-05
1.54906e-06
-5.16021e-05
-1.54123e-06
-2.71557e-09
5.12937e-05
1.85334e-06
-1.35295e-08
-2.34682e-06
2.21238e-06
-2.04275e-06
-1.15255e-09
2.16846e-06
2.84573e-08
-4.34627e-05
4.23312e-05
-5.06799e-05
-1.00537e-09
4.91682e-05
6.14331e-09
-1.46032e-09
1.13427e-12
-5.26843e-05
-1.42385e-06
5.23649e-05
1.74061e-06
-5.26848e-05
-1.42382e-06
2.72567e-09
5.23653e-05
1.74061e-06
1.32972e-11
-1.79589e-06
1.93769e-06
-1.79579e-06
1.16911e-09
1.93767e-06
-5.48791e-13
-5.31469e-05
5.17221e-05
-5.31478e-05
1.00958e-09
5.1723e-05
7.36771e-13
1.46076e-09
-9.69147e-10
-5.16034e-05
-1.54123e-06
5.12948e-05
1.85344e-06
-4.95293e-05
-1.56517e-06
9.16597e-08
4.9452e-05
1.54986e-06
1.34657e-08
-2.04257e-06
2.16852e-06
-2.34709e-06
1.7831e-07
2.21277e-06
-2.84068e-08
-5.06829e-05
4.91711e-05
-4.34678e-05
-4.61408e-07
4.23356e-05
-6.12553e-09
-2.91981e-07
-3.09242e-07
-4.85424e-05
3.28565e-06
4.94223e-05
-3.76461e-06
-6.63205e-05
-3.66807e-06
6.47009e-05
4.97842e-06
-5.09199e-07
1.73397e-06
-2.46942e-06
-3.1584e-06
4.55105e-06
9.22668e-07
-3.31422e-05
3.50438e-05
-7.92163e-05
7.64709e-05
5.41528e-07
-7.42288e-08
-6.33343e-05
-4.01074e-06
6.21539e-05
5.26531e-06
-5.00766e-05
4.41866e-06
3.48719e-08
5.06122e-05
-5.06329e-06
1.11192e-07
-3.84845e-06
5.1075e-06
4.00174e-06
-2.23578e-08
-4.52098e-06
-1.635e-06
-7.39104e-05
7.15347e-05
-3.71642e-05
7.34311e-07
3.92136e-05
-1.27839e-06
6.02204e-07
7.96892e-08
-4.94264e-05
-6.35563e-07
4.94876e-05
5.29548e-07
-5.09754e-05
-7.67874e-07
7.43499e-09
5.07293e-05
1.08617e-06
3.31193e-08
-9.90815e-07
9.60106e-07
-1.07356e-06
1.02009e-09
1.42402e-06
9.71737e-08
-4.18833e-05
4.18849e-05
-4.81515e-05
8.50596e-09
4.74723e-05
5.93108e-08
2.39405e-09
3.01139e-12
-5.19944e-05
-7.20556e-07
5.16662e-05
1.05616e-06
-5.19948e-05
-7.20572e-07
-7.42151e-09
5.16666e-05
1.0562e-06
8.87514e-13
-9.91099e-07
1.36258e-06
-9.91101e-07
-1.00839e-09
1.36261e-06
1.08711e-12
-5.07334e-05
5.00213e-05
-5.07343e-05
-8.48567e-09
5.00222e-05
4.86178e-13
-2.38192e-09
-7.9572e-08
-5.09763e-05
-7.68001e-07
5.07301e-05
1.08637e-06
-4.94269e-05
-6.36028e-07
-3.48506e-08
4.94878e-05
5.30402e-07
-3.30348e-08
-1.07365e-06
1.4242e-06
-9.91292e-07
2.23883e-08
9.60944e-07
-9.70555e-08
-4.81543e-05
4.74749e-05
-4.1887e-05
-7.33939e-07
4.18878e-05
-5.92299e-08
-6.0187e-07
7.4016e-08
-5.00749e-05
4.41634e-06
5.06104e-05
-5.06064e-06
-6.33311e-05
-4.00838e-06
6.21512e-05
5.26232e-06
-1.11326e-07
3.9993e-06
-4.51821e-06
-3.84599e-06
5.10445e-06
1.63383e-06
-3.71638e-05
3.92124e-05
-7.39023e-05
7.15277e-05
1.27741e-06
-3.96692e-07
-6.11549e-05
-4.12616e-06
6.02919e-05
5.38583e-06
-5.10612e-05
4.74482e-06
7.91021e-08
5.14424e-05
-5.60187e-06
-2.42204e-07
-4.0382e-06
5.27942e-06
4.57721e-06
6.01782e-08
-5.3286e-06
-2.22569e-06
-6.94238e-05
6.75233e-05
-4.1037e-05
9.12488e-07
4.26437e-05
-1.92734e-06
8.26417e-07
1.7247e-07
-4.96218e-05
-2.82952e-07
4.98261e-05
-1.47727e-08
-5.05737e-05
-3.9343e-07
2.45733e-08
5.04949e-05
6.20166e-07
1.25041e-07
-4.14693e-07
2.15643e-07
-5.44794e-07
1.60804e-08
8.09375e-07
1.66592e-07
-4.2161e-05
4.2624e-05
-4.70464e-05
2.68621e-08
4.67927e-05
1.35607e-07
1.67198e-08
-3.38719e-11
-5.14122e-05
-4.20558e-07
5.12249e-05
6.32418e-07
-5.14125e-05
-4.20595e-07
-2.46973e-08
5.12252e-05
6.32498e-07
5.443e-11
-5.34973e-07
8.05031e-07
-5.35015e-07
-1.58875e-08
8.05068e-07
-6.96359e-11
-4.95031e-05
4.91094e-05
-4.95039e-05
-2.72278e-08
4.91104e-05
-7.5233e-12
-1.6718e-08
-1.72277e-07
-5.05744e-05
-3.93768e-07
5.04954e-05
6.20357e-07
-4.96218e-05
-2.83179e-07
-7.91246e-08
4.98259e-05
-1.40712e-08
-1.24831e-07
-5.44925e-07
8.09602e-07
-4.15068e-07
-6.0144e-08
2.16475e-07
-1.67366e-07
-4.70486e-05
4.6795e-05
-4.21634e-05
-9.12365e-07
4.26252e-05
-1.35398e-07
-8.2603e-07
3.96348e-07
-5.10593e-05
4.74269e-06
5.14406e-05
-5.5994e-06
-6.11525e-05
-4.12389e-06
6.02898e-05
5.38291e-06
2.41934e-07
4.57503e-06
-5.3261e-06
-4.0358e-06
5.2764e-06
2.22418e-06
-4.10354e-05
4.26415e-05
-6.9418e-05
6.75183e-05
1.92604e-06
-6.46857e-07
-5.95548e-05
-4.16912e-06
5.89137e-05
5.45709e-06
-5.17627e-05
4.86113e-06
8.68406e-08
5.20342e-05
-5.86629e-06
-5.25134e-07
-4.10763e-06
5.36987e-06
4.76556e-06
8.65926e-08
-5.6976e-06
-2.68448e-06
-6.58616e-05
6.4377e-05
-4.40017e-05
1.01199e-06
4.51664e-05
-2.44593e-06
9.61603e-07
2.51371e-07
-5.00406e-05
-1.99374e-07
5.02706e-05
-1.95167e-07
-5.04782e-05
-1.9429e-07
4.37205e-08
5.05091e-05
3.71075e-07
2.1161e-07
-2.19336e-07
-1.20203e-07
-2.76052e-07
3.34585e-08
4.70834e-07
2.13991e-07
-4.31739e-05
4.37725e-05
-4.66711e-05
4.3748e-08
4.66471e-05
1.92348e-07
3.78839e-08
4.72996e-11
-5.10995e-05
-2.70095e-07
5.10232e-05
3.90116e-07
-5.10997e-05
-2.7072e-07
-4.30501e-08
5.10233e-05
3.90187e-07
9.21921e-11
-3.32027e-07
4.90826e-07
-3.31799e-07
-3.34499e-08
4.90872e-07
-1.7014e-09
-4.88145e-05
4.85898e-05
-4.88145e-05
-4.89539e-08
4.8591e-05
8.31562e-10
-3.50372e-08
-2.50817e-07
-5.04786e-05
-1.94131e-07
5.05093e-05
3.71218e-07
-5.00405e-05
-1.98678e-07
-8.69858e-08
5.027e-05
-1.9473e-07
-2.11607e-07
-2.76088e-07
4.71007e-07
-2.20031e-07
-8.65242e-08
-1.19661e-07
-2.18287e-07
-4.66731e-05
4.66483e-05
-4.31761e-05
-1.01329e-06
4.37725e-05
-1.89202e-07
-9.60166e-07
6.46355e-07
-5.17611e-05
4.85935e-06
5.20324e-05
-5.86399e-06
-5.95531e-05
-4.16679e-06
5.8912e-05
5.45419e-06
5.24816e-07
4.76333e-06
-5.69518e-06
-4.10536e-06
5.36695e-06
2.68227e-06
-4.39999e-05
4.51637e-05
-6.58576e-05
6.43731e-05
2.44473e-06
-8.34049e-07
-5.83606e-05
-4.18886e-06
5.78756e-05
5.50785e-06
-5.22628e-05
4.91557e-06
6.86848e-08
5.24572e-05
-6.01274e-06
-7.3992e-07
-4.13502e-06
5.42809e-06
4.83988e-06
7.91981e-08
-5.8876e-06
-3.02851e-06
-6.30821e-05
6.19218e-05
-4.61341e-05
1.06154e-06
4.69597e-05
-2.84018e-06
1.03191e-06
3.11898e-07
-5.05022e-05
-2.14857e-07
5.07317e-05
-2.57886e-07
-5.0575e-05
-8.75914e-08
6.26796e-08
5.06674e-05
2.44355e-07
2.81094e-07
-1.97925e-07
-2.35484e-07
-1.31033e-07
5.25542e-08
2.93717e-07
2.55456e-07
-4.4371e-05
4.49622e-05
-4.66958e-05
6.38904e-08
4.67998e-05
2.35523e-07
5.57804e-08
3.08355e-11
-5.09888e-05
-1.74617e-07
5.09879e-05
2.3814e-07
-5.09889e-05
-1.74673e-07
-6.25907e-08
5.0988e-05
2.38202e-07
7.45317e-11
-2.16217e-07
3.03058e-07
-2.16093e-07
-5.25349e-08
3.03117e-07
2.12685e-11
-4.84288e-05
4.8318e-05
-4.84292e-05
-6.39813e-08
4.83186e-05
5.97991e-10
-5.36854e-08
-3.11682e-07
-5.0575e-05
-8.77387e-08
5.06674e-05
2.44474e-07
-5.05016e-05
-2.14961e-07
-6.87499e-08
5.0731e-05
-2.57425e-07
-2.80885e-07
-1.31274e-07
2.93857e-07
-1.98225e-07
-7.91925e-08
-2.35008e-07
-2.55393e-07
-4.66971e-05
4.68008e-05
-4.43715e-05
-1.06118e-06
4.49623e-05
-2.33795e-07
-1.03107e-06
8.33595e-07
-5.22611e-05
4.91349e-06
5.24556e-05
-6.01036e-06
-5.83591e-05
-4.18678e-06
5.78743e-05
5.50512e-06
7.39514e-07
4.83781e-06
-5.88526e-06
-4.13277e-06
5.42523e-06
3.02679e-06
-4.61318e-05
4.69574e-05
-6.3079e-05
6.1919e-05
2.83864e-06
-9.70787e-07
-5.74526e-05
-4.19329e-06
5.70784e-05
5.53825e-06
-5.26231e-05
4.94258e-06
3.89452e-08
5.27639e-05
-6.09311e-06
-8.98569e-07
-4.14532e-06
5.46689e-06
4.87771e-06
5.40889e-08
-5.99621e-06
-3.27872e-06
-6.09077e-05
5.99932e-05
-4.76445e-05
1.07788e-06
4.82304e-05
-3.13125e-06
1.06167e-06
3.53623e-07
-5.09503e-05
-2.66131e-07
5.1159e-05
-2.57271e-07
-5.07767e-05
-3.47527e-08
8.05038e-08
5.08987e-05
1.8583e-07
3.31473e-07
-2.36965e-07
-2.59025e-07
-5.56499e-08
7.11101e-08
2.06746e-07
2.84491e-07
-4.55185e-05
4.60457e-05
-4.69412e-05
7.95337e-08
4.71114e-05
2.68442e-07
7.13565e-08
2.5169e-11
-5.10138e-05
-1.06833e-07
5.10611e-05
1.40018e-07
-5.10138e-05
-1.06881e-07
-8.04192e-08
5.10611e-05
1.40064e-07
2.62853e-11
-1.36456e-07
1.81708e-07
-1.36505e-07
-7.10275e-08
1.81763e-07
2.81642e-11
-4.82529e-05
4.82256e-05
-4.82533e-05
-7.94498e-08
4.82259e-05
3.1374e-11
-7.12627e-08
-3.53415e-07
-5.07766e-05
-3.48681e-08
5.08986e-05
1.85896e-07
-5.09496e-05
-2.66179e-07
-3.90557e-08
5.11583e-05
-2.56864e-07
-3.31264e-07
-5.57831e-08
2.06839e-07
-2.37037e-07
-5.41795e-08
-2.586e-07
-2.84319e-07
-4.6942e-05
4.7112e-05
-4.55184e-05
-1.07756e-06
4.60454e-05
-2.68266e-07
-1.06133e-06
9.70298e-07
-5.26216e-05
4.94051e-06
5.27625e-05
-6.09075e-06
-5.74514e-05
-4.19129e-06
5.70774e-05
5.53563e-06
8.98098e-07
4.87568e-06
-5.99388e-06
-4.14315e-06
5.46414e-06
3.27692e-06
-4.76422e-05
4.82282e-05
-6.09053e-05
5.9991e-05
3.1295e-06
-1.06919e-06
-5.67475e-05
-4.1885e-06
5.64521e-05
5.55316e-06
-5.28845e-05
4.95049e-06
5.99904e-09
5.29859e-05
-6.12711e-06
-1.01412e-06
-4.14704e-06
5.49206e-06
4.897e-06
2.23543e-08
-6.05409e-06
-3.45696e-06
-5.91888e-05
5.84573e-05
-4.87168e-05
1.07561e-06
4.91348e-05
-3.34267e-06
1.06792e-06
3.79728e-07
-5.1353e-05
-3.21511e-07
5.15347e-05
-2.33942e-07
-5.10263e-05
-1.39025e-08
9.57573e-08
5.11582e-05
1.65886e-07
3.64742e-07
-2.92001e-07
-2.44386e-07
-2.13118e-08
8.7632e-08
1.70875e-07
3.04336e-07
-4.65291e-05
4.69788e-05
-4.72973e-05
9.21114e-08
4.74956e-05
2.92567e-07
8.537e-08
2.71559e-11
-5.11239e-05
-6.06826e-08
5.12005e-05
7.98548e-08
-5.11239e-05
-6.07193e-08
-9.56653e-08
5.12004e-05
7.98815e-08
2.54417e-11
-8.02324e-08
1.04966e-07
-8.02758e-08
-8.7545e-08
1.05002e-07
2.80038e-11
-4.82307e-05
4.82621e-05
-4.8231e-05
-9.20262e-08
4.82623e-05
2.66807e-11
-8.52875e-08
-3.79526e-07
-5.1026e-05
-1.39815e-08
5.1158e-05
1.6591e-07
-5.13522e-05
-3.2152e-07
-6.13657e-09
5.15339e-05
-2.33577e-07
-3.64539e-07
-2.14071e-08
1.70917e-07
-2.92025e-07
-2.24783e-08
-2.44009e-07
-3.04166e-07
-4.72977e-05
4.74959e-05
-4.65286e-05
-1.07531e-06
4.69782e-05
-2.92399e-07
-1.06761e-06
1.06869e-06
-5.28831e-05
4.94844e-06
5.29846e-05
-6.12476e-06
-5.67466e-05
-4.18657e-06
5.64512e-05
5.55064e-06
1.01362e-06
4.89498e-06
-6.05177e-06
-4.14494e-06
5.4894e-06
3.45512e-06
-4.87147e-05
4.91327e-05
-5.91869e-05
5.84555e-05
3.34086e-06
-1.13785e-06
-5.61868e-05
-4.17201e-06
5.59472e-05
5.54949e-06
-5.30729e-05
4.93803e-06
-2.57974e-08
5.31446e-05
-6.12178e-06
-1.09559e-06
-4.13537e-06
5.49623e-06
4.89333e-06
-1.00586e-08
-6.06586e-06
-3.57705e-06
-5.78098e-05
5.72148e-05
-4.94811e-05
1.06201e-06
4.97801e-05
-3.48791e-06
1.05908e-06
3.93799e-07
-5.17012e-05
-3.7074e-07
5.18551e-05
-2.02717e-07
-5.1289e-05
-1.09817e-08
1.07952e-07
5.14188e-05
1.66996e-07
3.84091e-07
-3.44337e-07
-2.16292e-07
-1.08133e-08
1.01213e-07
1.62936e-07
3.16424e-07
-4.73855e-05
4.77603e-05
-4.76967e-05
1.01435e-07
4.79007e-05
3.08109e-07
9.61999e-08
3.00596e-11
-5.12847e-05
-2.95638e-08
5.13752e-05
4.70134e-08
-5.12846e-05
-2.95929e-08
-1.07853e-07
5.13751e-05
4.70217e-08
2.83256e-11
-4.2946e-08
5.99161e-08
-4.29806e-08
-1.01118e-07
5.99333e-08
3.08817e-11
-4.83153e-05
4.83872e-05
-4.83155e-05
-1.01345e-07
4.83873e-05
2.91636e-11
-9.61133e-08
-3.93603e-07
-5.12887e-05
-1.10292e-08
5.14185e-05
1.66984e-07
-5.17004e-05
-3.70722e-07
2.56402e-08
5.18543e-05
-2.02381e-07
-3.83894e-07
-1.08745e-08
1.62941e-07
-3.44329e-07
9.91198e-09
-2.15949e-07
-3.16254e-07
-4.76968e-05
4.79007e-05
-4.73848e-05
-1.06174e-06
4.77595e-05
-3.0794e-07
-1.0588e-06
1.13736e-06
-5.30717e-05
4.93599e-06
5.31435e-05
-6.11946e-06
-5.6186e-05
-4.17014e-06
5.59464e-05
5.54705e-06
1.0951e-06
4.89132e-06
-6.06357e-06
-4.13333e-06
5.49366e-06
3.57521e-06
-4.94792e-05
4.97782e-05
-5.78082e-05
5.72133e-05
3.48609e-06
-1.18485e-06
-5.57281e-05
-4.14806e-06
5.55276e-05
5.53342e-06
-5.32055e-05
4.9111e-06
-5.43528e-08
5.32535e-05
-6.08955e-06
-1.15266e-06
-4.11753e-06
5.48923e-06
4.87624e-06
-4.01171e-08
-6.04971e-06
-3.65436e-06
-5.66834e-05
5.61897e-05
-5.00272e-05
1.04276e-06
5.02412e-05
-3.58615e-06
1.04292e-06
3.99494e-07
-5.19944e-05
-4.12135e-07
5.21212e-05
-1.68523e-07
-5.15433e-05
-1.85941e-08
1.17004e-07
5.16633e-05
1.81065e-07
3.93717e-07
-3.8933e-07
-1.83838e-07
-1.37272e-08
1.11787e-07
1.71209e-07
3.22668e-07
-4.80968e-05
4.84047e-05
-4.81002e-05
1.07785e-07
4.82965e-05
3.17149e-07
1.03964e-07
3.2507e-11
-5.14676e-05
-1.1819e-08
5.15617e-05
3.47527e-08
-5.14675e-05
-1.18383e-08
-1.169e-07
5.15616e-05
3.47464e-08
3.1069e-11
-1.90784e-08
3.83601e-08
-1.91019e-08
-1.11686e-07
3.83604e-08
3.32647e-11
-4.8472e-05
4.85679e-05
-4.84721e-05
-1.07692e-07
4.85679e-05
3.18664e-11
-1.03874e-07
-3.99305e-07
-5.15429e-05
-1.8617e-08
5.16629e-05
1.81027e-07
-5.19936e-05
-4.12105e-07
5.41832e-08
5.21204e-05
-1.68198e-07
-3.93526e-07
-1.37609e-08
1.71182e-07
-3.89302e-07
3.99545e-08
-1.83515e-07
-3.22499e-07
-4.81001e-05
4.82962e-05
-4.80959e-05
-1.04251e-06
4.84038e-05
-3.16981e-07
-1.04267e-06
1.18436e-06
-5.32044e-05
4.90908e-06
5.32524e-05
-6.08726e-06
-5.57274e-05
-4.14624e-06
5.55269e-05
5.53105e-06
1.15217e-06
4.87424e-06
-6.04744e-06
-4.11553e-06
5.48674e-06
3.65253e-06
-5.00255e-05
5.02395e-05
-5.66821e-05
5.61884e-05
3.58433e-06
-1.21522e-06
-5.53406e-05
-4.11593e-06
5.51666e-05
5.50514e-06
-5.3293e-05
4.86934e-06
-7.88373e-08
5.33207e-05
-6.0334e-06
-1.18994e-06
-4.08774e-06
5.4647e-06
4.84005e-06
-6.63938e-08
-6.00314e-06
-3.69741e-06
-5.57453e-05
5.53268e-05
-5.04163e-05
1.02035e-06
5.05679e-05
-3.64331e-06
1.02164e-06
3.99271e-07
-5.22342e-05
-4.46445e-07
5.23348e-05
-1.32279e-07
-5.17753e-05
-3.29675e-08
1.23048e-07
5.18807e-05
2.03849e-07
3.95988e-07
-4.26647e-07
-1.48667e-07
-2.50273e-08
1.19182e-07
1.89816e-07
3.24484e-07
-4.86789e-05
4.89283e-05
-4.84834e-05
1.11569e-07
4.86633e-05
3.20846e-07
1.0888e-07
3.42508e-11
-5.16535e-05
-4.62164e-09
5.17433e-05
3.78498e-08
-5.16534e-05
-4.63327e-09
-1.22941e-07
5.17432e-05
3.78327e-08
3.31282e-11
-7.02149e-09
3.43329e-08
-7.03646e-09
-1.19077e-07
3.43208e-08
3.48382e-11
-4.86698e-05
4.87767e-05
-4.86697e-05
-1.11475e-07
4.87766e-05
3.38167e-11
-1.08787e-07
-3.99088e-07
-5.17749e-05
-3.29698e-08
5.18802e-05
2.0379e-07
-5.22334e-05
-4.46407e-07
7.86606e-08
5.2334e-05
-1.31965e-07
-3.95804e-07
-2.50386e-08
1.89767e-07
-4.26611e-07
6.62219e-08
-1.48352e-07
-3.24317e-07
-4.84831e-05
4.8663e-05
-4.86779e-05
-1.02011e-06
4.89273e-05
-3.20679e-07
-1.02139e-06
1.21474e-06
-5.3292e-05
4.86734e-06
5.33198e-05
-6.03114e-06
-5.53399e-05
-4.11415e-06
5.5166e-05
5.50284e-06
1.18946e-06
4.83808e-06
-6.0009e-06
-4.08579e-06
5.46227e-06
3.6956e-06
-5.04147e-05
5.05663e-05
-5.57441e-05
5.53255e-05
3.64151e-06
-1.23295e-06
-5.50005e-05
-4.07749e-06
5.48429e-05
5.46807e-06
-5.3341e-05
4.81334e-06
-9.92129e-08
5.33495e-05
-5.95559e-06
-1.21379e-06
-4.05424e-06
5.43413e-06
4.79344e-06
-8.86123e-08
-5.93888e-06
-3.71374e-06
-5.49459e-05
5.45821e-05
-5.06891e-05
9.96452e-07
5.07922e-05
-3.6733e-06
9.98932e-07
3.95119e-07
-5.24223e-05
-4.74028e-07
5.24975e-05
-9.55236e-08
-5.19764e-05
-5.13877e-08
1.26387e-07
5.20638e-05
2.32743e-07
3.93762e-07
-4.57329e-07
-1.12544e-07
-4.1488e-08
1.2383e-07
2.15637e-07
3.23115e-07
-4.91488e-05
4.93481e-05
-4.88313e-05
1.13327e-07
4.89897e-05
3.21056e-07
1.11598e-07
3.53129e-11
-5.18278e-05
-6.31621e-09
5.19075e-05
5.30537e-08
-5.18277e-05
-6.32208e-09
-1.26279e-07
5.19073e-05
5.30291e-08
3.45532e-11
-4.43883e-09
4.36873e-08
-4.44692e-09
-1.23723e-07
4.36661e-08
3.53893e-11
-4.88838e-05
4.89908e-05
-4.88837e-05
-1.13233e-07
4.89906e-05
3.495e-11
-1.11505e-07
-3.94942e-07
-5.1976e-05
-5.13759e-08
5.20633e-05
2.32671e-07
-5.24215e-05
-4.73983e-07
9.90326e-08
5.24967e-05
-9.52226e-08
-3.93584e-07
-4.14818e-08
2.15571e-07
-4.57286e-07
8.84353e-08
-1.12241e-07
-3.22951e-07
-4.88309e-05
4.89892e-05
-4.91478e-05
-9.96225e-07
4.93471e-05
-3.20891e-07
-9.98702e-07
1.23248e-06
-5.33401e-05
4.81136e-06
5.33486e-05
-5.95335e-06
-5.49998e-05
-4.07576e-06
5.48422e-05
5.46583e-06
1.21332e-06
4.79148e-06
-5.93667e-06
-4.05234e-06
5.43177e-06
3.71194e-06
-5.06876e-05
5.07908e-05
-5.49447e-05
5.45809e-05
3.67151e-06
-1.24106e-06
-5.46885e-05
-4.0343e-06
5.45386e-05
5.42525e-06
-5.33509e-05
4.74421e-06
-1.16133e-07
5.33401e-05
-5.85841e-06
-1.22573e-06
-4.01181e-06
5.39196e-06
4.72925e-06
-1.06786e-07
-5.84958e-06
-3.70908e-06
-5.42473e-05
5.39221e-05
-5.087e-05
9.72035e-07
5.0933e-05
-3.67701e-06
9.74541e-07
3.88858e-07
-5.25599e-05
-4.96331e-07
5.26111e-05
-5.98182e-08
-5.21403e-05
-7.30135e-08
1.27565e-07
5.22067e-05
2.67889e-07
3.8811e-07
-4.81638e-07
-7.57008e-08
-6.13891e-08
1.25904e-07
2.47146e-07
3.19539e-07
-4.95227e-05
4.96788e-05
-4.91342e-05
1.13584e-07
4.92671e-05
3.18363e-07
1.12485e-07
3.16091e-11
-5.19792e-05
-1.53491e-08
5.20433e-05
7.87912e-08
-5.19791e-05
-1.53501e-08
-1.2747e-07
5.20432e-05
7.87645e-08
3.48092e-11
-9.97477e-09
6.40775e-08
-9.97913e-09
-1.25797e-07
6.40511e-08
3.26855e-11
-4.90933e-05
4.91915e-05
-4.90931e-05
-1.13497e-07
4.91913e-05
3.4422e-11
-1.12394e-07
-3.88719e-07
-5.21398e-05
-7.29886e-08
5.22062e-05
2.67818e-07
-5.25592e-05
-4.96272e-07
1.15988e-07
5.26104e-05
-5.96658e-08
-3.87937e-07
-6.1372e-08
2.47073e-07
-4.81586e-07
1.06605e-07
-7.53922e-08
-3.19383e-07
-4.91336e-05
4.92665e-05
-4.95217e-05
-9.71813e-07
4.96778e-05
-3.18202e-07
-9.7432e-07
1.24062e-06
-5.335e-05
4.74225e-06
5.33393e-05
-5.85618e-06
-5.46878e-05
-4.0326e-06
5.45379e-05
5.42307e-06
1.22527e-06
4.72732e-06
-5.84739e-06
-4.00995e-06
5.38967e-06
3.70732e-06
-5.08685e-05
5.09317e-05
-5.42461e-05
5.39209e-05
3.67524e-06
-1.24201e-06
-5.43878e-05
-3.99005e-06
5.42377e-05
5.38211e-06
-5.33218e-05
4.66536e-06
-1.28537e-07
5.32899e-05
-5.74692e-06
-1.22973e-06
-3.96747e-06
5.34802e-06
4.65483e-06
-1.21425e-07
-5.74482e-06
-3.68936e-06
-5.36183e-05
5.33177e-05
-5.09737e-05
9.4829e-07
5.10014e-05
-3.66372e-06
9.50432e-07
3.8018e-07
-5.26507e-05
-5.18469e-07
5.26755e-05
-1.50291e-08
-5.22609e-05
-9.68089e-08
1.27068e-07
5.23032e-05
3.07623e-07
3.80767e-07
-5.02944e-07
-3.88756e-08
-8.39647e-08
1.26097e-07
2.84392e-07
3.14348e-07
-4.98124e-05
4.99279e-05
-4.9385e-05
1.12708e-07
4.94898e-05
3.13911e-07
1.12112e-07
3.5215e-11
-5.20971e-05
-3.027e-08
5.21406e-05
1.13779e-07
-5.20969e-05
-3.02687e-08
-1.26965e-07
5.21405e-05
1.13751e-07
3.32187e-11
-2.19264e-08
9.41984e-08
-2.1926e-08
-1.25997e-07
9.41685e-08
3.45954e-11
-4.92816e-05
4.9364e-05
-4.92814e-05
-1.12617e-07
4.93638e-05
3.36632e-11
-1.12023e-07
-3.8001e-07
-5.22604e-05
-9.67789e-08
5.23027e-05
3.07535e-07
-5.265e-05
-5.1844e-07
1.28351e-07
5.26748e-05
-1.4698e-08
-3.80598e-07
-8.39374e-08
2.84305e-07
-5.02911e-07
1.21248e-07
-3.85353e-08
-3.14188e-07
-4.93843e-05
4.94891e-05
-4.98114e-05
-9.48079e-07
4.99268e-05
-3.13753e-07
-9.50219e-07
1.24157e-06
-5.3321e-05
4.66343e-06
5.32891e-05
-5.74474e-06
-5.43871e-05
-3.98839e-06
5.42371e-05
5.37998e-06
1.22929e-06
4.65292e-06
-5.74265e-06
-3.96565e-06
5.34579e-06
3.68762e-06
-5.09724e-05
5.10001e-05
-5.36172e-05
5.33164e-05
3.66199e-06
-1.23622e-06
-5.4083e-05
-3.94074e-06
5.39252e-05
5.33472e-06
-5.32496e-05
4.57202e-06
-1.37455e-07
5.3194e-05
-5.61516e-06
-1.2272e-06
-3.921e-06
5.30292e-06
4.5694e-06
-1.31987e-07
-5.6243e-06
-3.65191e-06
-5.30326e-05
5.27437e-05
-5.10081e-05
9.23977e-07
5.10042e-05
-3.63591e-06
9.26794e-07
3.69927e-07
-5.26868e-05
-5.41324e-07
5.26859e-05
3.48598e-08
-5.23319e-05
-1.22848e-07
1.25617e-07
5.23466e-05
3.52443e-07
3.71352e-07
-5.24837e-07
1.0199e-08
-1.08515e-07
1.25144e-07
3.26079e-07
3.07739e-07
-5.00218e-05
5.00967e-05
-4.95785e-05
1.11e-07
4.96524e-05
3.08038e-07
1.10805e-07
3.33763e-11
-5.21717e-05
-5.06141e-08
5.21899e-05
1.5807e-07
-5.21716e-05
-5.06075e-08
-1.25518e-07
5.21897e-05
1.58035e-07
3.36186e-11
-3.94168e-08
1.33428e-07
-3.94133e-08
-1.25044e-07
1.33396e-07
3.35403e-11
-4.94354e-05
4.94957e-05
-4.94351e-05
-1.10911e-07
4.94955e-05
3.38199e-11
-1.10716e-07
-3.6976e-07
-5.23314e-05
-1.22812e-07
5.23461e-05
3.52342e-07
-5.26861e-05
-5.41317e-07
1.37271e-07
5.26852e-05
3.51557e-08
-3.71187e-07
-1.08482e-07
3.25983e-07
-5.2481e-07
1.31805e-07
1.05061e-08
-3.07582e-07
-4.95778e-05
4.96517e-05
-5.00207e-05
-9.23775e-07
5.00956e-05
-3.07881e-07
-9.26591e-07
1.2358e-06
-5.32488e-05
4.57011e-06
5.31932e-05
-5.61302e-06
-5.40823e-05
-3.93912e-06
5.39246e-05
5.33265e-06
1.22677e-06
4.56751e-06
-5.62217e-06
-3.91921e-06
5.30074e-06
3.65022e-06
-5.10068e-05
5.10029e-05
-5.30314e-05
5.27425e-05
3.63422e-06
-1.22639e-06
-5.37591e-05
-3.89389e-06
5.35863e-05
5.29302e-06
-5.31275e-05
4.47151e-06
-1.42657e-07
5.30437e-05
-5.47142e-06
-1.21956e-06
-3.87377e-06
5.25949e-06
4.47513e-06
-1.39026e-07
-5.48925e-06
-3.60886e-06
-5.24646e-05
5.21795e-05
-5.09813e-05
9.01717e-07
5.09423e-05
-3.59459e-06
9.03474e-07
3.58206e-07
-5.26669e-05
-5.68939e-07
5.2629e-05
1.05963e-07
-5.23457e-05
-1.51702e-07
1.23954e-07
5.23281e-05
4.03611e-07
3.60546e-07
-5.50248e-07
6.96853e-08
-1.35611e-07
1.23579e-07
3.73426e-07
3.00419e-07
-5.01488e-05
5.01812e-05
-4.97091e-05
1.08813e-07
4.9749e-05
3.01156e-07
1.08876e-07
3.16672e-11
-5.21934e-05
-7.61929e-08
5.21813e-05
2.12263e-07
-5.21932e-05
-7.61828e-08
-1.23861e-07
5.21811e-05
2.12226e-07
3.21378e-11
-6.20995e-08
1.82097e-07
-6.20903e-08
-1.23486e-07
1.82061e-07
3.20158e-11
-4.95425e-05
4.95751e-05
-4.95422e-05
-1.08728e-07
4.95748e-05
3.24635e-11
-1.0879e-07
-3.58038e-07
-5.23452e-05
-1.5166e-07
5.23276e-05
4.03503e-07
-5.26661e-05
-5.68933e-07
1.42471e-07
5.26282e-05
1.06325e-07
-3.60377e-07
-1.35571e-07
3.73319e-07
-5.50247e-07
1.3884e-07
7.00964e-08
-3.00264e-07
-4.97083e-05
4.97482e-05
-5.01476e-05
-9.01518e-07
5.018e-05
-3.01001e-07
-9.03274e-07
1.22598e-06
-5.31268e-05
4.46963e-06
5.3043e-05
-5.46932e-06
-5.37584e-05
-3.8923e-06
5.35857e-05
5.29099e-06
1.21914e-06
4.47327e-06
-5.48716e-06
-3.87202e-06
5.25736e-06
3.60718e-06
-5.098e-05
5.09409e-05
-5.24634e-05
5.21783e-05
3.59291e-06
-1.21289e-06
-5.34018e-05
-3.84978e-06
5.32068e-05
5.25769e-06
-5.29476e-05
4.36152e-06
-1.45463e-07
5.28309e-05
-5.31219e-06
-1.20794e-06
-3.8288e-06
5.22123e-06
4.37025e-06
-1.42792e-07
-5.33931e-06
-3.55663e-06
-5.18993e-05
5.16061e-05
-5.0882e-05
8.79921e-07
5.08069e-05
-3.54854e-06
8.82002e-07
3.46349e-07
-5.2574e-05
-5.97607e-07
5.24994e-05
1.80487e-07
-5.22929e-05
-1.848e-07
1.21732e-07
5.22385e-05
4.63865e-07
3.48705e-07
-5.78003e-07
1.41435e-07
-1.66107e-07
1.21684e-07
4.28287e-07
2.92655e-07
-5.01915e-05
5.01812e-05
-4.977e-05
1.06243e-07
4.97716e-05
2.93655e-07
1.06519e-07
3.01381e-11
-5.21523e-05
-1.07847e-07
5.21045e-05
2.77279e-07
-5.21521e-05
-1.07836e-07
-1.21643e-07
5.21043e-05
2.77242e-07
3.05977e-11
-9.03626e-08
2.41027e-07
-9.03523e-08
-1.21594e-07
2.4099e-07
3.04434e-11
-4.95912e-05
4.95895e-05
-4.95909e-05
-1.06162e-07
4.95892e-05
3.09312e-11
-1.06436e-07
-3.46189e-07
-5.22924e-05
-1.84759e-07
5.22379e-05
4.63759e-07
-5.25733e-05
-5.97594e-07
1.45283e-07
5.24986e-05
1.80818e-07
-3.48543e-07
-1.66065e-07
4.2818e-07
-5.77989e-07
1.42611e-07
1.4177e-07
-2.92504e-07
-4.97692e-05
4.97708e-05
-5.01903e-05
-8.79725e-07
5.01799e-05
-2.93504e-07
-8.81806e-07
1.21249e-06
-5.29469e-05
4.35967e-06
5.28301e-05
-5.31012e-06
-5.34012e-05
-3.84822e-06
5.32062e-05
5.25571e-06
1.20754e-06
4.36842e-06
-5.33726e-06
-3.82708e-06
5.21914e-06
3.55499e-06
-5.08806e-05
5.08056e-05
-5.18981e-05
5.16049e-05
3.5469e-06
-1.19653e-06
-5.29963e-05
-3.80929e-06
5.2771e-05
5.23116e-06
-5.26997e-05
4.24148e-06
-1.46465e-07
5.25449e-05
-5.13681e-06
-1.19308e-06
-3.78679e-06
5.19038e-06
4.25665e-06
-1.44656e-07
-5.17386e-06
-3.49748e-06
-5.13124e-05
5.10006e-05
-5.07098e-05
8.58731e-07
5.05951e-05
-3.49306e-06
8.60683e-07
3.3486e-07
-5.2406e-05
-6.29845e-07
5.229e-05
2.64542e-07
-5.21643e-05
-2.22984e-07
1.19088e-07
5.20677e-05
5.3535e-07
3.37147e-07
-6.07743e-07
2.19323e-07
-2.01159e-07
1.19252e-07
4.93238e-07
2.84717e-07
-5.01482e-05
5.00924e-05
-4.97525e-05
1.03477e-07
4.97107e-05
2.8585e-07
1.03832e-07
2.85405e-11
-5.20371e-05
-1.45427e-07
5.19473e-05
3.54277e-07
-5.20369e-05
-1.45417e-07
-1.19002e-07
5.19471e-05
3.5424e-07
2.90431e-11
-1.24472e-07
3.11117e-07
-1.24462e-07
-1.19164e-07
3.1108e-07
2.88294e-11
-4.95689e-05
4.95269e-05
-4.95686e-05
-1.03398e-07
4.95266e-05
2.93461e-11
-1.03753e-07
-3.34706e-07
-5.21638e-05
-2.22943e-07
5.20672e-05
5.35247e-07
-5.24052e-05
-6.29832e-07
1.46292e-07
5.22892e-05
2.64861e-07
-3.36991e-07
-2.01118e-07
4.93134e-07
-6.07726e-07
1.44481e-07
2.19641e-07
-2.84571e-07
-4.97516e-05
4.97098e-05
-5.0147e-05
-8.58538e-07
5.00911e-05
-2.85704e-07
-8.6049e-07
1.19615e-06
-5.26989e-05
4.23966e-06
5.25441e-05
-5.13477e-06
-5.29956e-05
-3.80776e-06
5.27703e-05
5.22923e-06
1.19269e-06
4.25485e-06
-5.17184e-06
-3.7851e-06
5.18834e-06
3.49588e-06
-5.07085e-05
5.05937e-05
-5.13112e-05
5.09994e-05
3.49146e-06
-1.17749e-06
-5.25265e-05
-3.77312e-06
5.22627e-05
5.21439e-06
-5.23733e-05
4.11125e-06
-1.4593e-07
5.21743e-05
-4.94388e-06
-1.17516e-06
-3.74771e-06
5.16733e-06
4.13146e-06
-1.44824e-07
-4.99016e-06
-3.4324e-06
-5.06834e-05
5.03427e-05
-5.04564e-05
8.38011e-07
5.02972e-05
-3.4305e-06
8.39715e-07
3.23675e-07
-5.2153e-05
-6.67245e-07
5.19898e-05
3.60877e-07
-5.19491e-05
-2.67017e-07
1.16019e-07
5.18045e-05
6.19262e-07
3.25831e-07
-6.42087e-07
3.08368e-07
-2.41943e-07
1.16398e-07
5.69946e-07
2.76694e-07
-5.00122e-05
4.99062e-05
-4.96457e-05
1.00549e-07
4.95548e-05
2.77876e-07
1.01001e-07
2.70058e-11
-5.18354e-05
-1.90317e-07
5.16975e-05
4.4423e-07
-5.18352e-05
-1.90306e-07
-1.15937e-07
5.16973e-05
4.44194e-07
2.74938e-11
-1.65336e-07
3.93625e-07
-1.65326e-07
-1.16315e-07
3.93589e-07
2.71506e-11
-4.94625e-05
4.93727e-05
-4.94622e-05
-1.00474e-07
4.93724e-05
2.77111e-11
-1.00925e-07
-3.23528e-07
-5.19486e-05
-2.66975e-07
5.1804e-05
6.19162e-07
-5.21523e-05
-6.67223e-07
1.45765e-07
5.1989e-05
3.61177e-07
-3.25682e-07
-2.41903e-07
5.69846e-07
-6.4207e-07
1.44656e-07
3.08674e-07
-2.76554e-07
-4.96447e-05
4.95538e-05
-5.00108e-05
-8.3782e-07
4.99049e-05
-2.77735e-07
-8.39525e-07
1.17712e-06
-5.23725e-05
4.10946e-06
5.21736e-05
-4.94188e-06
-5.25258e-05
-3.77163e-06
5.22621e-05
5.2125e-06
1.17479e-06
4.12969e-06
-4.98818e-06
-3.74607e-06
5.16535e-06
3.43084e-06
-5.0455e-05
5.02958e-05
-5.06822e-05
5.03414e-05
3.42893e-06
-1.15662e-06
-5.19759e-05
-3.74379e-06
5.16651e-05
5.21123e-06
-5.19556e-05
3.97221e-06
-1.44067e-07
5.17054e-05
-4.73463e-06
-1.15563e-06
-3.71602e-06
5.15847e-06
3.99909e-06
-1.43633e-07
-4.79231e-06
-3.36339e-06
-4.99914e-05
4.9611e-05
-5.01118e-05
8.17954e-07
4.99026e-05
-3.36477e-06
8.19722e-07
3.12894e-07
-5.18031e-05
-7.07784e-07
5.15867e-05
4.67247e-07
-5.16351e-05
-3.17125e-07
1.12548e-07
5.14357e-05
7.16853e-07
3.15031e-07
-6.80571e-07
4.08563e-07
-2.88411e-07
1.13174e-07
6.59719e-07
2.68716e-07
-4.97754e-05
4.96168e-05
-4.94383e-05
9.75357e-08
4.92924e-05
2.70006e-07
9.80725e-08
2.54269e-11
-5.15344e-05
-2.42755e-07
5.13412e-05
5.48434e-07
-5.15342e-05
-2.42743e-07
-1.1247e-07
5.1341e-05
5.48399e-07
2.59589e-11
-2.13436e-07
4.89654e-07
-2.13425e-07
-1.13095e-07
4.89619e-07
2.54551e-11
-4.92573e-05
4.91121e-05
-4.9257e-05
-9.74644e-08
4.91117e-05
2.60448e-11
-9.80002e-08
-3.12753e-07
-5.16345e-05
-3.17085e-07
5.14351e-05
7.16756e-07
-5.18023e-05
-7.07761e-07
1.43908e-07
5.15859e-05
4.67533e-07
-3.14888e-07
-2.8837e-07
6.59621e-07
-6.80545e-07
1.43472e-07
4.08849e-07
-2.6858e-07
-4.94373e-05
4.92914e-05
-4.9774e-05
-8.17766e-07
4.96154e-05
-2.69869e-07
-8.19535e-07
1.15626e-06
-5.19548e-05
3.97046e-06
5.17046e-05
-4.73268e-06
-5.19752e-05
-3.74233e-06
5.16644e-05
5.2094e-06
1.15527e-06
3.99735e-06
-4.79036e-06
-3.71441e-06
5.15654e-06
3.36187e-06
-5.01103e-05
4.99012e-05
-4.99903e-05
4.96098e-05
3.36324e-06
-1.13411e-06
-5.13273e-05
-3.72184e-06
5.09606e-05
5.22268e-06
-5.14325e-05
3.82351e-06
-1.4113e-07
5.1124e-05
-4.50799e-06
-1.13406e-06
-3.69039e-06
5.16224e-06
3.85647e-06
-1.41227e-07
-4.57636e-06
-3.29095e-06
-4.92151e-05
4.87842e-05
-4.96645e-05
7.98462e-07
4.93986e-05
-3.29452e-06
8.00113e-07
3.02497e-07
-5.1344e-05
-7.56125e-07
5.10673e-05
5.89196e-07
-5.12086e-05
-3.74705e-07
1.08828e-07
5.09473e-05
8.29621e-07
3.04535e-07
-7.24409e-07
5.21349e-07
-3.41636e-07
1.09596e-07
7.63694e-07
2.60784e-07
-4.94304e-05
4.9212e-05