/*--------------------------------*- C++ -*----------------------------------*\
  =========                 |
  \\      /  F ield         | OpenFOAM: The Open Source CFD Toolbox
   \\    /   O peration     | Website:  https://openfoam.org
    \\  /    A nd           | Version:  9
     \\/     M anipulation  |
\*---------------------------------------------------------------------------*/
FoamFile
{
    format      ascii;
    class       volScalarField;
    location    "2.5";
    object      p;
}
// * * * * * * * * * * * * * * * * * * * * * * * * * * * * * * * * * * * * * //

dimensions      [0 2 -2 0 0 0 0];

internalField   nonuniform List<scalar> 
36360
(
20.1561
20.0638
20.1299
20.0782
20.0887
20.109
20.0915
20.1009
20.0979
20.1007
20.0996
20.1007
20.0986
20.0987
20.097
20.0982
20.1006
20.1006
20.1007
20.1007
20.0987
20.0987
20.0986
20.0986
20.1007
20.0979
20.1007
20.0996
20.0987
20.0986
20.0982
20.097
20.0638
20.1561
20.0782
20.1299
20.109
20.0887
20.1009
20.0915
20.1387
20.0832
20.1517
20.0736
20.0478
20.1513
20.0729
20.1295
20.0998
20.1008
20.0984
20.1011
20.1042
20.0979
20.101
20.0987
20.1008
20.1008
20.1008
20.1008
20.0975
20.0975
20.0984
20.0984
20.1008
20.0998
20.1011
20.0984
20.0979
20.1042
20.0987
20.101
20.0832
20.1387
20.0736
20.1517
20.1513
20.0479
20.1295
20.0729
20.1132
20.096
20.1255
20.0906
19.9988
20.1888
20.0225
20.1715
20.1077
20.1002
20.1032
20.1002
20.1161
20.0978
20.1095
20.0975
20.0984
20.0984
20.0997
20.0997
20.0955
20.0955
20.0964
20.0964
20.1002
20.1077
20.1002
20.1032
20.0978
20.1161
20.0975
20.1095
20.096
20.1132
20.0906
20.1255
20.1887
19.9988
20.1715
20.0225
20.0914
20.1018
20.1018
20.0996
19.9576
20.2143
19.9771
20.2029
20.1172
20.1025
20.1124
20.101
20.1301
20.1005
20.1231
20.0989
20.0967
20.0967
20.0973
20.0973
20.0946
20.0946
20.0949
20.0949
20.1025
20.1172
20.101
20.1124
20.1005
20.1301
20.0989
20.1231
20.1018
20.0914
20.0996
20.1018
20.2143
19.9576
20.2029
19.9771
20.0737
20.1031
20.0821
20.1029
19.9248
20.2306
19.9402
20.2234
20.1261
20.1065
20.1218
20.1044
20.1427
20.105
20.1367
20.1026
20.0969
20.0969
20.0966
20.0966
20.0953
20.0953
20.0948
20.0948
20.1065
20.1261
20.1044
20.1218
20.105
20.1427
20.1026
20.1367
20.1031
20.0737
20.1029
20.0821
20.2305
19.9248
20.2234
19.9403
20.0594
20.1021
20.0662
20.1028
19.899
20.2406
19.9111
20.2362
20.1331
20.1111
20.1299
20.1088
20.1528
20.1099
20.1481
20.1074
20.0987
20.0987
20.0977
20.0977
20.0972
20.0972
20.0961
20.0961
20.1111
20.1331
20.1088
20.1298
20.1099
20.1528
20.1074
20.1481
20.1021
20.0594
20.1028
20.0662
20.2406
19.899
20.2362
19.9112
20.0479
20.0999
20.0534
20.1011
19.8786
20.2467
19.8882
20.244
20.1384
20.1155
20.136
20.1133
20.1603
20.1148
20.1569
20.1124
20.1014
20.1014
20.1
20.1
20.0998
20.0998
20.0984
20.0984
20.1155
20.1384
20.1133
20.136
20.1148
20.1603
20.1124
20.1568
20.0999
20.0479
20.1011
20.0534
20.2466
19.8787
20.244
19.8883
20.0386
20.0973
20.043
20.0987
19.8626
20.2503
19.8701
20.2487
20.1421
20.1194
20.1404
20.1175
20.1659
20.1191
20.1633
20.117
20.1043
20.1043
20.1028
20.1028
20.1028
20.1028
20.1013
20.1013
20.1194
20.1421
20.1175
20.1404
20.1191
20.1658
20.117
20.1633
20.0973
20.0386
20.0987
20.043
20.2503
19.8626
20.2487
19.8702
20.031
20.0946
20.0346
20.096
19.8498
20.2523
19.8558
20.2514
20.1447
20.1227
20.1435
20.1212
20.1698
20.1227
20.168
20.121
20.1072
20.1072
20.1058
20.1058
20.1057
20.1057
20.1043
20.1042
20.1227
20.1447
20.1212
20.1435
20.1227
20.1698
20.121
20.168
20.0946
20.031
20.096
20.0346
20.2523
19.8498
20.2514
19.8559
20.0247
20.092
20.0277
20.0933
19.8395
20.2532
19.8444
20.2529
20.1464
20.1254
20.1456
20.1241
20.1725
20.1257
20.1713
20.1243
20.1099
20.1099
20.1086
20.1086
20.1083
20.1083
20.107
20.107
20.1254
20.1464
20.1241
20.1456
20.1257
20.1725
20.1243
20.1713
20.092
20.0247
20.0933
20.0277
20.2532
19.8396
20.2528
19.8444
20.0194
20.0895
20.0219
20.0907
19.8313
20.2534
19.8352
20.2534
20.1474
20.1275
20.147
20.1265
20.1743
20.1279
20.1735
20.1269
20.1121
20.1121
20.1111
20.1111
20.1105
20.1105
20.1095
20.1095
20.1274
20.1474
20.1265
20.147
20.1279
20.1743
20.1269
20.1735
20.0895
20.0195
20.0908
20.022
20.2534
19.8314
20.2534
19.8353
20.015
20.0873
20.0171
20.0884
19.8247
20.2531
19.8279
20.2533
20.1479
20.129
20.1477
20.1283
20.1754
20.1296
20.175
20.1288
20.1139
20.1139
20.1131
20.1131
20.1123
20.1123
20.1115
20.1115
20.129
20.1479
20.1283
20.1477
20.1296
20.1754
20.1288
20.1749
20.0873
20.015
20.0884
20.0171
20.253
19.8248
20.2533
19.8279
20.0113
20.0852
20.0131
20.0862
19.8194
20.2523
19.822
20.2527
20.148
20.1301
20.148
20.1296
20.1759
20.1306
20.1757
20.1302
20.1153
20.1153
20.1147
20.1147
20.1136
20.1136
20.113
20.113
20.1301
20.148
20.1296
20.148
20.1306
20.1758
20.1302
20.1757
20.0852
20.0113
20.0862
20.0131
20.2523
19.8195
20.2527
19.822
20.008
20.0833
20.0096
20.0843
19.8152
20.2513
19.8172
20.2518
20.1478
20.1307
20.1479
20.1304
20.1758
20.1312
20.1759
20.131
20.1161
20.1161
20.1158
20.1158
20.1144
20.1144
20.1141
20.1141
20.1306
20.1478
20.1304
20.1479
20.1312
20.1758
20.131
20.1759
20.0833
20.0081
20.0843
20.0096
20.2513
19.8153
20.2518
19.8173
20.0053
20.0816
20.0066
20.0824
19.8118
20.2499
19.8134
20.2506
20.1473
20.1308
20.1476
20.1308
20.1754
20.1313
20.1756
20.1313
20.1166
20.1166
20.1164
20.1164
20.1148
20.1148
20.1147
20.1146
20.1308
20.1473
20.1308
20.1476
20.1313
20.1754
20.1313
20.1756
20.0816
20.0053
20.0824
20.0066
20.2499
19.8119
20.2506
19.8135
20.0028
20.08
20.004
20.0807
19.8093
20.2482
19.8105
20.2491
20.1466
20.1306
20.147
20.1308
20.1745
20.131
20.175
20.1312
20.1167
20.1167
20.1167
20.1167
20.1147
20.1147
20.1148
20.1148
20.1306
20.1466
20.1308
20.147
20.131
20.1745
20.1312
20.175
20.0799
20.0029
20.0808
20.004
20.2483
19.8093
20.2492
19.8105
20.0006
20.0785
20.0017
20.0792
19.8074
20.2464
19.8082
20.2473
20.1457
20.1301
20.1462
20.1304
20.1734
20.1304
20.174
20.1307
20.1164
20.1164
20.1166
20.1166
20.1143
20.1143
20.1146
20.1146
20.1301
20.1457
20.1304
20.1462
20.1304
20.1734
20.1307
20.174
20.0784
20.0007
20.0792
20.0018
20.2463
19.8075
20.2474
19.8084
19.9987
20.0771
19.9996
20.0778
19.8059
20.2443
19.8066
20.2454
20.1448
20.1294
20.1453
20.1298
20.172
20.1294
20.1728
20.1299
20.1158
20.1158
20.1161
20.1161
20.1135
20.1135
20.114
20.114
20.1293
20.1447
20.1298
20.1452
20.1294
20.172
20.1299
20.1727
20.0771
19.9988
20.0778
19.9997
20.2443
19.806
20.2453
19.8068
19.9972
20.0757
19.9979
20.0764
19.8049
20.2421
19.8054
20.2432
20.1436
20.1284
20.1442
20.1289
20.1704
20.1281
20.1712
20.1288
20.115
20.115
20.1154
20.1154
20.1125
20.1125
20.113
20.113
20.1284
20.1437
20.1289
20.1442
20.1281
20.1704
20.1288
20.1712
20.0759
19.997
20.0765
19.9979
20.2421
19.8048
20.2432
19.8053
19.9956
20.0746
19.9963
20.0752
19.8041
20.2398
19.8044
20.2409
20.1425
20.1272
20.1431
20.1278
20.1686
20.1266
20.1695
20.1274
20.114
20.114
20.1145
20.1145
20.1112
20.1111
20.1118
20.1118
20.1272
20.1425
20.1278
20.1431
20.1266
20.1686
20.1274
20.1695
20.0746
19.9957
20.0752
19.9963
20.2398
19.8042
20.2409
19.8045
19.9943
20.0737
19.9949
20.0741
19.8035
20.2375
19.8038
20.2387
20.1414
20.1259
20.1419
20.1266
20.1667
20.1249
20.1676
20.1258
20.1128
20.1128
20.1134
20.1134
20.1096
20.1096
20.1104
20.1104
20.1259
20.1413
20.1266
20.1419
20.1249
20.1666
20.1258
20.1676
20.0735
19.9944
20.0741
19.995
20.2375
19.8037
20.2387
19.8039
19.9934
20.0726
19.9938
20.0731
19.8035
20.2351
19.8035
20.2363
20.1402
20.1245
20.1408
20.1252
20.1646
20.1231
20.1657
20.124
20.1115
20.1115
20.1122
20.1122
20.1079
20.1079
20.1088
20.1088
20.1245
20.1402
20.1252
20.1408
20.1231
20.1646
20.124
20.1656
20.0727
19.9932
20.0731
19.9938
20.2351
19.8034
20.2363
19.8035
19.9925
20.0719
19.9929
20.0723
19.8037
20.2328
19.8035
20.234
20.1389
20.1232
20.1396
20.1239
20.1625
20.1212
20.1636
20.1222
20.1102
20.1102
20.1109
20.1109
20.1062
20.1062
20.1071
20.1071
20.1232
20.1389
20.1239
20.1396
20.1212
20.1624
20.1221
20.1635
20.0719
19.9924
20.0723
19.9928
20.2328
19.8037
20.2339
19.8035
19.992
20.0712
19.9921
20.0716
19.8044
20.2304
19.804
20.2316
20.1373
20.1217
20.1381
20.1225
20.1602
20.1192
20.1613
20.1202
20.1089
20.1089
20.1096
20.1096
20.1043
20.1043
20.1053
20.1053
20.1217
20.1373
20.1224
20.1381
20.1192
20.1601
20.1202
20.1613
20.0712
19.9922
20.0716
19.9922
20.2304
19.8044
20.2315
19.804
19.9918
20.0709
19.9919
20.071
19.8053
20.2282
19.8048
20.2293
20.1359
20.1204
20.1365
20.1211
20.1579
20.1172
20.159
20.1182
20.1077
20.1077
20.1083
20.1083
20.1025
20.1025
20.1034
20.1034
20.1204
20.1359
20.1211
20.1366
20.1172
20.1579
20.1182
20.159
20.071
19.9917
20.0711
19.9919
20.2282
19.8052
20.2293
19.8047
19.9918
20.071
19.9918
20.0709
19.8066
20.226
19.8059
20.2271
20.1347
20.1192
20.1353
20.1198
20.1557
20.1153
20.1568
20.1163
20.1066
20.1066
20.1071
20.1071
20.1008
20.1008
20.1017
20.1017
20.1192
20.1347
20.1198
20.1353
20.1153
20.1557
20.1163
20.1568
20.0709
19.9919
20.071
19.9917
20.226
19.8067
20.2271
19.8058
19.9924
20.0712
19.9921
20.0711
19.8087
20.2239
19.8076
20.225
20.1338
20.1182
20.1343
20.1187
20.1536
20.1136
20.1547
20.1144
20.1057
20.1057
20.1061
20.1061
20.0992
20.0992
20.1
20.1
20.1182
20.1338
20.1187
20.1342
20.1136
20.1536
20.1144
20.1546
20.0712
19.9925
20.071
19.9921
20.2239
19.8087
20.2249
19.8077
19.9934
20.0718
19.9928
20.0715
19.8113
20.222
19.8099
20.223
20.1331
20.1174
20.1334
20.1178
20.1517
20.112
20.1527
20.1127
20.105
20.105
20.1053
20.1053
20.0979
20.0979
20.0985
20.0985
20.1174
20.1331
20.1178
20.1334
20.112
20.1517
20.1127
20.1527
20.0718
19.9934
20.0715
19.9929
20.222
19.8113
20.2229
19.81
19.9949
20.0729
19.9941
20.0723
19.8145
20.2203
19.8128
20.2211
20.1328
20.1169
20.1329
20.1171
20.15
20.1106
20.1509
20.1113
20.1047
20.1047
20.1048
20.1048
20.0968
20.0968
20.0973
20.0973
20.1169
20.1327
20.1171
20.1329
20.1106
20.15
20.1113
20.1508
20.0729
19.9949
20.0723
19.9941
20.2203
19.8146
20.2211
19.8129
19.9969
20.0743
19.9958
20.0735
19.8185
20.2188
19.8164
20.2195
20.1327
20.1167
20.1327
20.1168
20.1486
20.1096
20.1493
20.1101
20.1047
20.1047
20.1047
20.1047
20.0961
20.0961
20.0964
20.0964
20.1167
20.1327
20.1168
20.1327
20.1096
20.1486
20.1101
20.1493
20.0743
19.9969
20.0735
19.9958
20.2188
19.8185
20.2195
19.8165
19.9995
20.0761
19.9981
20.0751
19.8232
20.2176
19.8207
20.2182
20.1329
20.1169
20.1328
20.1167
20.1474
20.1089
20.148
20.1092
20.1052
20.1052
20.1049
20.1049
20.0958
20.0958
20.0959
20.0959
20.1169
20.1329
20.1167
20.1327
20.1089
20.1474
20.1092
20.1479
20.0761
19.9995
20.0751
19.9981
20.2176
19.8232
20.2181
19.8208
20.0027
20.0783
20.001
20.0771
19.8287
20.2167
19.8258
20.2171
20.1334
20.1174
20.1331
20.1171
20.1465
20.1087
20.1469
20.1087
20.1061
20.1061
20.1056
20.1056
20.0961
20.0961
20.0959
20.0959
20.1174
20.1334
20.1171
20.1331
20.1087
20.1465
20.1087
20.1469
20.0783
20.0028
20.0771
20.0011
20.2166
19.8288
20.2171
19.8259
20.0066
20.0809
20.0046
20.0796
19.8352
20.216
19.8318
20.2163
20.1341
20.1183
20.1338
20.1178
20.1459
20.1089
20.1461
20.1087
20.1075
20.1075
20.1067
20.1067
20.0969
20.0969
20.0964
20.0964
20.1183
20.1341
20.1178
20.1337
20.1088
20.1458
20.1087
20.1461
20.0809
20.0066
20.0796
20.0046
20.216
19.8352
20.2163
19.8319
20.0111
20.0838
20.0088
20.0823
19.8427
20.2155
19.8388
20.2157
20.1351
20.1196
20.1346
20.1189
20.1455
20.1096
20.1456
20.1091
20.1094
20.1094
20.1084
20.1084
20.0983
20.0983
20.0975
20.0975
20.1196
20.1351
20.1189
20.1346
20.1095
20.1455
20.1091
20.1456
20.0838
20.0112
20.0823
20.0088
20.2155
19.8427
20.2157
19.8388
20.0165
20.087
20.0137
20.0854
19.8514
20.2151
19.8469
20.2153
20.1363
20.1213
20.1357
20.1204
20.1454
20.1108
20.1454
20.1101
20.1118
20.1118
20.1105
20.1105
20.1004
20.1004
20.0993
20.0993
20.1213
20.1363
20.1204
20.1357
20.1108
20.1454
20.1101
20.1454
20.087
20.0165
20.0854
20.0137
20.215
19.8514
20.2152
19.8469
20.0225
20.0903
20.0194
20.0886
19.8615
20.2145
19.8562
20.2148
20.1376
20.1234
20.1369
20.1223
20.1455
20.1125
20.1454
20.1116
20.1147
20.1147
20.1132
20.1132
20.1031
20.1031
20.1017
20.1017
20.1234
20.1375
20.1223
20.1369
20.1125
20.1455
20.1116
20.1454
20.0903
20.0225
20.0886
20.0194
20.2145
19.8615
20.2148
19.8563
20.0291
20.0939
20.0258
20.0921
19.8735
20.2134
19.8672
20.2141
20.1389
20.1258
20.1382
20.1246
20.1456
20.1148
20.1455
20.1136
20.1181
20.1181
20.1163
20.1163
20.1064
20.1064
20.1047
20.1047
20.1258
20.1389
20.1245
20.1382
20.1148
20.1456
20.1136
20.1455
20.0939
20.0291
20.0921
20.0258
20.2134
19.8736
20.2141
19.8673
20.0345
20.0988
20.0323
20.096
19.8883
20.2107
19.8805
20.2124
20.1403
20.1287
20.1395
20.1272
20.1457
20.1177
20.1457
20.1162
20.122
20.122
20.12
20.12
20.1104
20.1104
20.1083
20.1083
20.1287
20.1403
20.1272
20.1395
20.1177
20.1457
20.1162
20.1456
20.0988
20.0345
20.096
20.0323
20.2107
19.8883
20.2123
19.8806
20.039
20.104
20.0353
20.1031
19.9065
20.2049
19.8968
20.2084
20.1428
20.1324
20.1414
20.1304
20.1461
20.1213
20.1458
20.1194
20.1265
20.1265
20.1242
20.1242
20.1149
20.1149
20.1126
20.1126
20.1324
20.1427
20.1304
20.1414
20.1213
20.1461
20.1194
20.1458
20.104
20.039
20.1031
20.0353
20.2049
19.9065
20.2084
19.8969
20.2005
20.0368
20.1551
20.0597
20.1858
20.0408
20.1437
20.0643
20.0837
20.0991
20.0931
20.1003
20.0889
20.099
20.0947
20.0987
20.1004
20.1004
20.1005
20.1005
20.0996
20.0996
20.0989
20.0989
20.0991
20.0837
20.1003
20.0931
20.099
20.0889
20.0987
20.0947
20.0368
20.2005
20.0597
20.1551
20.0408
20.1858
20.0643
20.1437
20.1955
20.06
20.1997
20.0501
20.1851
20.0558
20.1893
20.0488
20.077
20.0937
20.0794
20.0966
20.0838
20.0973
20.0857
20.0987
20.0995
20.0995
20.1004
20.1004
20.0998
20.0998
20.1001
20.1001
20.0937
20.077
20.0966
20.0794
20.0973
20.0838
20.0987
20.0857
20.06
20.1955
20.0501
20.1997
20.0558
20.1851
20.0488
20.1893
20.1902
20.0681
20.1926
20.0655
20.1761
20.0617
20.1806
20.06
20.0772
20.0908
20.0768
20.0919
20.0854
20.096
20.084
20.0964
20.0968
20.0968
20.0982
20.0982
20.0979
20.0979
20.099
20.099
20.0908
20.0772
20.0919
20.0768
20.096
20.0854
20.0964
20.084
20.0681
20.1902
20.0655
20.1926
20.0617
20.1761
20.06
20.1806
20.1867
20.068
20.1883
20.0687
20.1681
20.0607
20.1719
20.0617
20.0788
20.0905
20.078
20.0904
20.0902
20.0969
20.0878
20.0962
20.0947
20.0947
20.0956
20.0956
20.0964
20.0964
20.097
20.097
20.0905
20.0788
20.0904
20.078
20.0969
20.0902
20.0962
20.0878
20.068
20.1867
20.0687
20.1883
20.0607
20.1681
20.0617
20.1719
20.1841
20.0648
20.1853
20.0667
20.1615
20.0567
20.1646
20.0589
20.0799
20.0917
20.0795
20.091
20.0942
20.0994
20.0924
20.098
20.0945
20.0945
20.0944
20.0944
20.0965
20.0965
20.0962
20.0962
20.0917
20.0799
20.091
20.0795
20.0994
20.0942
20.098
20.0924
20.0649
20.1841
20.0667
20.1853
20.0567
20.1615
20.0589
20.1646
20.1821
20.0606
20.1831
20.0628
20.1561
20.0517
20.1587
20.0542
20.0802
20.0935
20.0801
20.0926
20.0968
20.1025
20.0956
20.1009
20.0957
20.0957
20.0949
20.0949
20.0982
20.0982
20.0972
20.0972
20.0935
20.0802
20.0926
20.0802
20.1025
20.0968
20.1009
20.0956
20.0606
20.1821
20.0628
20.183
20.0517
20.1561
20.0543
20.1587
20.1803
20.0563
20.1812
20.0584
20.1517
20.0467
20.1538
20.0491
20.0799
20.0954
20.0801
20.0945
20.0982
20.1056
20.0977
20.1041
20.0979
20.0979
20.0967
20.0967
20.1007
20.1007
20.0994
20.0994
20.0954
20.0799
20.0945
20.0801
20.1056
20.0982
20.1041
20.0977
20.0563
20.1803
20.0584
20.1812
20.0467
20.1517
20.0491
20.1538
20.1787
20.0521
20.1795
20.0542
20.148
20.0421
20.1498
20.0444
20.0792
20.0973
20.0796
20.0964
20.0987
20.1087
20.0985
20.1072
20.1004
20.1004
20.0991
20.0991
20.1036
20.1036
20.1021
20.1021
20.0973
20.0792
20.0964
20.0796
20.1087
20.0987
20.1072
20.0985
20.0521
20.1787
20.0542
20.1795
20.0421
20.148
20.0444
20.1498
20.1773
20.0483
20.178
20.0502
20.1448
20.0379
20.1464
20.0399
20.0783
20.0988
20.0788
20.0981
20.0986
20.1113
20.0987
20.11
20.103
20.103
20.1017
20.1017
20.1064
20.1064
20.105
20.105
20.0988
20.0783
20.0981
20.0788
20.1113
20.0986
20.11
20.0987
20.0484
20.1773
20.0502
20.178
20.0379
20.1448
20.04
20.1463
20.1759
20.0449
20.1766
20.0466
20.1421
20.0341
20.1434
20.0359
20.0774
20.1001
20.0778
20.0995
20.0983
20.1134
20.0985
20.1124
20.1053
20.1053
20.1042
20.1042
20.109
20.109
20.1077
20.1077
20.1001
20.0774
20.0995
20.0779
20.1134
20.0983
20.1124
20.0985
20.0449
20.1759
20.0466
20.1766
20.0341
20.1421
20.036
20.1434
20.1746
20.0419
20.1752
20.0434
20.1397
20.0307
20.1409
20.0324
20.0764
20.1011
20.0769
20.1007
20.0977
20.1151
20.098
20.1143
20.1073
20.1073
20.1064
20.1064
20.1112
20.1112
20.1102
20.1102
20.1011
20.0764
20.1007
20.0769
20.1151
20.0977
20.1143
20.098
20.0419
20.1746
20.0434
20.1752
20.0308
20.1397
20.0324
20.1409
20.1733
20.0392
20.174
20.0405
20.1376
20.0278
20.1386
20.0292
20.0754
20.1018
20.0759
20.1015
20.097
20.1164
20.0974
20.1158
20.1089
20.1089
20.1081
20.1081
20.113
20.113
20.1122
20.1121
20.1018
20.0754
20.1015
20.0759
20.1164
20.097
20.1158
20.0974
20.0392
20.1733
20.0405
20.1739
20.0278
20.1376
20.0292
20.1386
20.172
20.0368
20.1727
20.0379
20.1357
20.0251
20.1366
20.0264
20.0744
20.1023
20.0749
20.1021
20.0963
20.1173
20.0967
20.1169
20.1101
20.1101
20.1095
20.1095
20.1143
20.1143
20.1137
20.1137
20.1023
20.0745
20.1021
20.0749
20.1173
20.0963
20.1169
20.0967
20.0368
20.172
20.0379
20.1726
20.0251
20.1356
20.0264
20.1366
20.1708
20.0347
20.1714
20.0357
20.1338
20.0229
20.1347
20.0239
20.0735
20.1025
20.074
20.1024
20.0954
20.1179
20.0958
20.1176
20.111
20.111
20.1106
20.1106
20.1153
20.1153
20.1148
20.1148
20.1025
20.0735
20.1024
20.074
20.1179
20.0954
20.1176
20.0959
20.0347
20.1708
20.0357
20.1714
20.0229
20.1338
20.024
20.1347
20.1695
20.0328
20.1702
20.0337
20.1321
20.0208
20.133
20.0218
20.0726
20.1025
20.073
20.1025
20.0945
20.1181
20.095
20.1181
20.1115
20.1115
20.1113
20.1113
20.1158
20.1158
20.1156
20.1156
20.1025
20.0726
20.1025
20.0731
20.1181
20.0945
20.1181
20.095
20.0328
20.1695
20.0337
20.1701
20.0209
20.1321
20.0218
20.133
20.1682
20.0312
20.1689
20.0319
20.1305
20.0191
20.1313
20.0199
20.0718
20.1025
20.0722
20.1025
20.0935
20.118
20.094
20.1181
20.1118
20.1118
20.1117
20.1117
20.116
20.116
20.116
20.116
20.1025
20.0718
20.1025
20.0722
20.118
20.0935
20.1181
20.094
20.0312
20.1681
20.0319
20.1688
20.0191
20.1305
20.0199
20.1313
20.167
20.0296
20.1675
20.0304
20.1291
20.0174
20.1298
20.0182
20.0709
20.1023
20.0714
20.1024
20.0925
20.1176
20.093
20.1178
20.1118
20.1118
20.1118
20.1118
20.1159
20.1159
20.116
20.116
20.1023
20.071
20.1024
20.0714
20.1176
20.0925
20.1178
20.093
20.0297
20.1668
20.0305
20.1674
20.0175
20.129
20.0183
20.1297
20.1657
20.0283
20.1664
20.0289
20.1277
20.016
20.1284
20.0166
20.0702
20.1019
20.0705
20.1021
20.0915
20.1171
20.092
20.1174
20.1117
20.1117
20.1117
20.1118
20.1156
20.1156
20.1158
20.1158
20.102
20.0702
20.1021
20.0706
20.1171
20.0914
20.1174
20.092
20.0283
20.1657
20.029
20.1663
20.0159
20.1279
20.0166
20.1285
20.1647
20.0272
20.1652
20.0277
20.1263
20.0148
20.127
20.0154
20.0695
20.1015
20.0698
20.1018
20.0904
20.1165
20.0909
20.1168
20.1114
20.1114
20.1115
20.1115
20.1151
20.1151
20.1154
20.1154
20.1015
20.0694
20.1018
20.0698
20.1165
20.0904
20.1168
20.0909
20.0271
20.1647
20.0277
20.1652
20.0149
20.1263
20.0154
20.1271
20.1633
20.0264
20.164
20.0268
20.125
20.0138
20.1256
20.0142
20.0689
20.1011
20.0692
20.1013
20.0893
20.1157
20.0898
20.1161
20.111
20.111
20.1112
20.1112
20.1144
20.1144
20.1148
20.1148
20.1012
20.069
20.1013
20.0692
20.1157
20.0892
20.1161
20.0898
20.0265
20.1632
20.0268
20.164
20.0137
20.1252
20.0143
20.1257
20.1626
20.0256
20.1629
20.026
20.1239
20.013
20.1245
20.0133
20.0685
20.1007
20.0687
20.1009
20.0881
20.1149
20.0887
20.1153
20.1105
20.1105
20.1108
20.1108
20.1137
20.1137
20.1141
20.1141
20.1007
20.0685
20.101
20.0687
20.1149
20.0881
20.1153
20.0887
20.0257
20.1625
20.0261
20.1628
20.0132
20.1238
20.0134
20.1245
20.1614
20.0254
20.162
20.0255
20.1229
20.0125
20.1234
20.0127
20.0683
20.1004
20.0684
20.1006
20.0868
20.1142
20.0875
20.1145
20.1101
20.1101
20.1103
20.1103
20.1129
20.1129
20.1133
20.1133
20.1005
20.0683
20.1006
20.0684
20.1142
20.0868
20.1146
20.0875
20.0254
20.1614
20.0255
20.162
20.0124
20.1229
20.0127
20.1234
20.1609
20.0251
20.1611
20.0252
20.1221
20.0122
20.1224
20.0123
20.0686
20.1002
20.0684
20.1003
20.086
20.1134
20.0864
20.1138
20.1097
20.1097
20.1099
20.1099
20.1121
20.1121
20.1125
20.1125
20.1002
20.0686
20.1003
20.0684
20.1134
20.0861
20.1138
20.0864
20.0251
20.1609
20.0252
20.1612
20.0123
20.1218
20.0124
20.1224
20.16
20.0253
20.1605
20.0251
20.1212
20.0122
20.1217
20.0121
20.0685
20.1
20.0686
20.1001
20.0867
20.1127
20.0862
20.1131
20.1093
20.1093
20.1095
20.1095
20.1113
20.1113
20.1117
20.1117
20.1
20.0686
20.1001
20.0686
20.1127
20.0867
20.1131
20.0862
20.0253
20.16
20.0251
20.1605
20.0121
20.1214
20.0121
20.1216
20.16
20.0255
20.1599
20.0254
20.121
20.0124
20.1211
20.0123
20.0687
20.1
20.0686
20.1
20.0873
20.1122
20.0871
20.1125
20.1092
20.1092
20.1092
20.1092
20.1106
20.1106
20.1109
20.1109
20.1
20.0687
20.1
20.0686
20.1122
20.0874
20.1125
20.0871
20.0255
20.16
20.0254
20.1599
20.0126
20.1207
20.0123
20.121
20.1597
20.0263
20.1599
20.0258
20.1205
20.0133
20.1207
20.0128
20.0693
20.1003
20.069
20.1001
20.088
20.1119
20.0876
20.112
20.1092
20.1092
20.1091
20.1091
20.1101
20.1101
20.1103
20.1104
20.1003
20.0694
20.1001
20.069
20.1119
20.0879
20.112
20.0877
20.0263
20.1597
20.0258
20.1599
20.0133
20.1206
20.0129
20.1206
20.1599
20.0275
20.1597
20.0268
20.1206
20.0144
20.1205
20.0138
20.0704
20.1008
20.0698
20.1005
20.0887
20.1117
20.0883
20.1118
20.1094
20.1094
20.1092
20.1092
20.1099
20.1099
20.11
20.11
20.1008
20.0704
20.1005
20.0698
20.1117
20.0887
20.1118
20.0883
20.0275
20.1598
20.0268
20.1597
20.0144
20.1206
20.0138
20.1206
20.1603
20.0293
20.16
20.0284
20.1211
20.0159
20.1208
20.0151
20.0717
20.1016
20.071
20.1012
20.0896
20.1118
20.0891
20.1118
20.1099
20.1099
20.1096
20.1096
20.1099
20.1099
20.1098
20.1098
20.1016
20.0717
20.1012
20.071
20.1118
20.0896
20.1118
20.0891
20.0293
20.1602
20.0284
20.16
20.0159
20.121
20.0151
20.1208
20.1611
20.0314
20.1607
20.0303
20.1219
20.0177
20.1214
20.0167
20.0734
20.1027
20.0725
20.1021
20.0908
20.1123
20.0902
20.112
20.1107
20.1107
20.1103
20.1103
20.1102
20.1102
20.11
20.11
20.1027
20.0734
20.1021
20.0725
20.1123
20.0908
20.112
20.0902
20.0314
20.161
20.0303
20.1606
20.0177
20.1218
20.0168
20.1214
20.1621
20.034
20.1616
20.0326
20.1231
20.0199
20.1224
20.0187
20.0754
20.1041
20.0743
20.1033
20.0923
20.113
20.0915
20.1126
20.1118
20.1118
20.1112
20.1112
20.1109
20.1109
20.1105
20.1105
20.1041
20.0754
20.1033
20.0744
20.113
20.0923
20.1126
20.0915
20.034
20.1621
20.0326
20.1615
20.0199
20.123
20.0188
20.1224
20.1634
20.0374
20.1628
20.0355
20.1247
20.0222
20.1238
20.021
20.0777
20.1057
20.0765
20.1049
20.0941
20.114
20.0932
20.1135
20.1133
20.1133
20.1125
20.1125
20.1119
20.1119
20.1113
20.1113
20.1057
20.0777
20.1049
20.0765
20.114
20.0941
20.1135
20.0932
20.0374
20.1634
20.0355
20.1627
20.0222
20.1246
20.0211
20.1238
20.165
20.0406
20.1642
20.0394
20.1267
20.0253
20.1256
20.0234
20.0803
20.1077
20.079
20.1067
20.0962
20.1154
20.0951
20.1147
20.1151
20.1151
20.1142
20.1142
20.1134
20.1134
20.1126
20.1126
20.1077
20.0803
20.1067
20.079
20.1154
20.0962
20.1147
20.0951
20.0406
20.165
20.0394
20.1641
20.0253
20.1266
20.0234
20.1256
20.1668
20.0431
20.1659
20.0417
20.129
20.0294
20.1278
20.0273
20.0832
20.1101
20.0817
20.1089
20.0985
20.1171
20.0973
20.1162
20.1173
20.1172
20.1161
20.1161
20.1152
20.1152
20.1142
20.1142
20.1101
20.0832
20.1089
20.0817
20.1171
20.0985
20.1162
20.0973
20.0431
20.1667
20.0418
20.1658
20.0294
20.129
20.0273
20.1278
20.1686
20.0464
20.1677
20.0447
20.1317
20.0336
20.1303
20.0315
20.0863
20.1127
20.0847
20.1113
20.101
20.1191
20.0997
20.1181
20.1197
20.1197
20.1184
20.1184
20.1174
20.1174
20.1163
20.1163
20.1127
20.0863
20.1113
20.0847
20.1191
20.101
20.1181
20.0997
20.0464
20.1686
20.0447
20.1677
20.0336
20.1316
20.0315
20.1303
20.1704
20.0501
20.1695
20.0481
20.1346
20.038
20.1331
20.0357
20.0896
20.1155
20.0879
20.114
20.1038
20.1214
20.1024
20.1202
20.1225
20.1225
20.121
20.121
20.12
20.12
20.1187
20.1187
20.1155
20.0896
20.114
20.0879
20.1214
20.1038
20.1202
20.1024
20.0501
20.1703
20.0481
20.1695
20.038
20.1345
20.0357
20.1331
20.1715
20.0543
20.171
20.0521
20.1374
20.0427
20.136
20.0403
20.0932
20.1185
20.0914
20.117
20.1067
20.1239
20.1052
20.1226
20.1255
20.1255
20.1239
20.1239
20.123
20.123
20.1215
20.1215
20.1185
20.0932
20.1169
20.0914
20.1239
20.1067
20.1226
20.1052
20.0543
20.1714
20.0521
20.171
20.0427
20.1374
20.0403
20.136
20.1711
20.0598
20.1716
20.0568
20.1396
20.0482
20.1386
20.0453
20.0971
20.1216
20.0951
20.12
20.1097
20.1267
20.1082
20.1253
20.1289
20.1289
20.1271
20.1271
20.1263
20.1263
20.1246
20.1246
20.1216
20.0971
20.12
20.0951
20.1267
20.1097
20.1253
20.1082
20.0598
20.171
20.0568
20.1715
20.0482
20.1395
20.0453
20.1386
20.1645
20.0703
20.1693
20.0638
20.1377
20.0571
20.1397
20.0517
20.1012
20.1247
20.099
20.1231
20.1128
20.1297
20.1112
20.1282
20.1326
20.1326
20.1307
20.1307
20.1301
20.1301
20.1282
20.1281
20.1247
20.1012
20.1231
20.099
20.1297
20.1128
20.1281
20.1112
20.0703
20.1645
20.0638
20.1692
20.0571
20.1376
20.0517
20.1396
20.1753
20.0652
20.1592
20.0779
20.1474
20.055
20.1348
20.0634
20.1022
20.1289
20.1031
20.1266
20.1146
20.1336
20.1145
20.1315
20.1368
20.1368
20.1347
20.1347
20.1344
20.1344
20.1322
20.1322
20.1288
20.1022
20.1266
20.1031
20.1336
20.1146
20.1315
20.1145
20.0652
20.1752
20.0779
20.1591
20.055
20.1474
20.0634
20.1347
20.2172
20.0336
20.1685
20.0546
20.21
20.0344
20.1628
20.0563
20.0741
20.096
20.0869
20.0993
20.078
20.0974
20.0894
20.0994
20.1003
20.1003
20.1003
20.1003
20.1001
20.1001
20.0997
20.0997
20.096
20.0741
20.0993
20.0869
20.0974
20.078
20.0994
20.0894
20.0336
20.2172
20.0546
20.1684
20.0344
20.21
20.0563
20.1627
20.1997
20.0729
20.2078
20.057
20.1986
20.0666
20.2046
20.0533
20.0685
20.0865
20.0703
20.091
20.0714
20.0897
20.0738
20.0936
20.0967
20.0967
20.0992
20.0992
20.0983
20.0983
20.0999
20.0999
20.0865
20.0685
20.091
20.0703
20.0897
20.0714
20.0936
20.0738
20.0729
20.1997
20.057
20.2077
20.0666
20.1986
20.0533
20.2046
20.1921
20.0882
20.1953
20.0824
20.1925
20.0786
20.1951
20.0743
20.0699
20.0818
20.0688
20.0836
20.072
20.0857
20.0713
20.0872
20.0911
20.0911
20.0938
20.0938
20.0942
20.0942
20.0962
20.0962
20.0818
20.0699
20.0836
20.0688
20.0857
20.072
20.0872
20.0713
20.0882
20.1921
20.0824
20.1952
20.0786
20.1925
20.0743
20.1951
20.1881
20.0931
20.1898
20.0914
20.1892
20.0814
20.1907
20.0807
20.0719
20.0801
20.071
20.0807
20.0734
20.0844
20.0728
20.0848
20.0872
20.0872
20.0888
20.0888
20.0912
20.0912
20.0924
20.0924
20.0801
20.0719
20.0807
20.071
20.0845
20.0734
20.0848
20.0728
20.0931
20.1881
20.0914
20.1898
20.0814
20.1892
20.0807
20.1906
20.1855
20.0938
20.1867
20.0938
20.1871
20.0804
20.1881
20.0811
20.073
20.0797
20.0726
20.0798
20.0741
20.0845
20.0739
20.0844
20.0855
20.0855
20.0861
20.0861
20.0903
20.0903
20.0905
20.0905
20.0797
20.073
20.0798
20.0726
20.0845
20.0741
20.0844
20.0739
20.0938
20.1855
20.0938
20.1867
20.0804
20.1871
20.0811
20.1881
20.1835
20.0927
20.1845
20.0933
20.1855
20.0779
20.1863
20.0792
20.0732
20.08
20.0732
20.0798
20.0739
20.0853
20.0741
20.0849
20.0856
20.0856
20.0854
20.0854
20.091
20.091
20.0905
20.0905
20.08
20.0732
20.0798
20.0732
20.0853
20.0739
20.0849
20.0741
20.0926
20.1835
20.0933
20.1844
20.0779
20.1854
20.0792
20.1862
20.1818
20.0908
20.1826
20.0918
20.184
20.075
20.1847
20.0765
20.0729
20.0805
20.0731
20.0802
20.0733
20.0863
20.0737
20.0858
20.0865
20.0865
20.086
20.086
20.0926
20.0926
20.0917
20.0917
20.0805
20.0729
20.0802
20.0731
20.0863
20.0733
20.0858
20.0737
20.0908
20.1817
20.0918
20.1826
20.075
20.184
20.0765
20.1847
20.1802
20.0887
20.181
20.0897
20.1827
20.072
20.1834
20.0735
20.0723
20.0811
20.0726
20.0808
20.0724
20.0873
20.0729
20.0868
20.088
20.088
20.0872
20.0872
20.0946
20.0946
20.0936
20.0936
20.0811
20.0723
20.0808
20.0726
20.0873
20.0724
20.0868
20.0729
20.0887
20.1802
20.0897
20.1809
20.072
20.1827
20.0735
20.1833
20.1788
20.0865
20.1795
20.0876
20.1815
20.0692
20.1821
20.0705
20.0716
20.0817
20.0719
20.0814
20.0714
20.0882
20.0719
20.0878
20.0895
20.0895
20.0888
20.0888
20.0965
20.0965
20.0955
20.0955
20.0818
20.0716
20.0815
20.0719
20.0883
20.0714
20.0878
20.0719
20.0865
20.1788
20.0876
20.1795
20.0692
20.1815
20.0706
20.1821
20.1775
20.0844
20.1781
20.0854
20.1803
20.0665
20.1809
20.0678
20.0708
20.0823
20.0712
20.082
20.0704
20.089
20.0709
20.0887
20.091
20.091
20.0903
20.0903
20.0983
20.0983
20.0974
20.0974
20.0823
20.0708
20.082
20.0712
20.0891
20.0704
20.0887
20.0709
20.0844
20.1775
20.0854
20.1781
20.0665
20.1803
20.0678
20.1809
20.1763
20.0825
20.1769
20.0835
20.1792
20.0641
20.1798
20.0653
20.0699
20.0827
20.0703
20.0825
20.0694
20.0897
20.0699
20.0894
20.0922
20.0922
20.0916
20.0916
20.0999
20.0999
20.0992
20.0992
20.0827
20.0699
20.0825
20.0704
20.0897
20.0694
20.0894
20.0699
20.0825
20.1763
20.0835
20.1769
20.0641
20.1792
20.0653
20.1797
20.1752
20.0808
20.1757
20.0816
20.1781
20.0619
20.1786
20.063
20.069
20.0829
20.0695
20.0828
20.0684
20.0901
20.0689
20.0899
20.0933
20.0933
20.0928
20.0928
20.1013
20.1013
20.1007
20.1007
20.0829
20.069
20.0828
20.0695
20.0901
20.0684
20.0899
20.0689
20.0808
20.1751
20.0816
20.1757
20.0619
20.1781
20.063
20.1786
20.174
20.0792
20.1746
20.08
20.177
20.06
20.1775
20.0609
20.0682
20.0831
20.0686
20.083
20.0674
20.0904
20.0679
20.0903
20.0941
20.0941
20.0937
20.0937
20.1023
20.1023
20.1019
20.1019
20.0831
20.0682
20.083
20.0686
20.0904
20.0674
20.0903
20.0679
20.0792
20.174
20.08
20.1746
20.06
20.1769
20.0609
20.1775
20.173
20.0777
20.1735
20.0784
20.1759
20.0582
20.1764
20.059
20.0674
20.0831
20.0678
20.0831
20.0665
20.0905
20.0669
20.0905
20.0947
20.0947
20.0944
20.0944
20.1031
20.1031
20.1028
20.1028
20.0831
20.0674
20.0831
20.0678
20.0905
20.0665
20.0905
20.067
20.0777
20.1729
20.0784
20.1735
20.0582
20.1759
20.059
20.1764
20.1719
20.0763
20.1725
20.077
20.1748
20.0566
20.1754
20.0573
20.0666
20.083
20.067
20.0831
20.0656
20.0905
20.0661
20.0905
20.0951
20.0951
20.095
20.095
20.1036
20.1036
20.1034
20.1034
20.083
20.0666
20.0831
20.067
20.0905
20.0657
20.0905
20.0661
20.0763
20.1719
20.077
20.1724