/*--------------------------------*- C++ -*----------------------------------*\
  =========                 |
  \\      /  F ield         | OpenFOAM: The Open Source CFD Toolbox
   \\    /   O peration     | Website:  https://openfoam.org
    \\  /    A nd           | Version:  9
     \\/     M anipulation  |
\*---------------------------------------------------------------------------*/
FoamFile
{
    format      ascii;
    class       surfaceScalarField;
    location    "2.5";
    object      phi;
}
// * * * * * * * * * * * * * * * * * * * * * * * * * * * * * * * * * * * * * //

dimensions      [0 3 -1 0 0 0 0];

internalField   nonuniform List<scalar> 
104044
(
3.69068e-06
-0.000148897
-1.02398e-05
0.000143164
1.22813e-05
-8.74992e-05
6.11979e-06
-1.36749e-06
9.45724e-05
-8.1349e-06
2.12563e-06
-1.10055e-05
1.27229e-05
6.39131e-06
-8.81619e-07
-8.65118e-06
-8.38742e-07
-0.000183009
0.000173608
-6.44134e-05
4.35508e-07
6.9259e-05
-3.91413e-07
1.61579e-07
-1.1333e-07
-9.71991e-05
-6.44259e-06
9.84524e-05
3.9351e-06
-0.000101302
-4.0056e-06
1.87894e-09
0.000102269
2.92258e-06
-4.48904e-08
-5.35699e-06
2.80963e-06
-3.03364e-06
-2.68399e-10
1.59837e-06
-5.4637e-09
-9.79524e-05
9.19507e-05
-0.000111996
3.57518e-09
0.000107982
-4.67479e-08
-1.60595e-08
1.03331e-12
-0.000103497
-2.01678e-06
0.000104552
9.63859e-07
-0.000103497
-2.01663e-06
-1.87285e-09
0.000104552
9.63707e-07
2.55877e-13
-1.91122e-06
4.65777e-07
-1.91118e-06
2.70391e-10
4.65726e-07
-9.51604e-15
-0.000114303
0.00011229
-0.000114303
-3.56139e-09
0.00011229
-1.35351e-12
1.60567e-08
1.13338e-07
-0.000101303
-4.00519e-06
0.00010227
2.92234e-06
-9.72e-05
-6.44265e-06
1.36741e-06
9.84529e-05
3.93562e-06
4.48967e-08
-3.03339e-06
1.59822e-06
-5.35699e-06
8.81557e-07
2.81006e-06
5.49354e-09
-0.000111998
0.000107984
-9.79564e-05
-4.3538e-07
9.19547e-05
4.67596e-08
-1.6149e-07
-3.69046e-06
-8.74983e-05
6.1177e-06
9.4571e-05
-8.13249e-06
-0.000148891
-1.02381e-05
0.000143159
1.22791e-05
-2.12546e-06
6.38906e-06
-8.64868e-06
-1.10037e-05
1.27206e-05
8.38273e-07
-6.44163e-05
6.92603e-05
-0.000182998
0.000173598
3.91165e-07
2.12056e-06
-0.000137606
-1.34868e-05
0.000132839
1.61334e-05
-9.9567e-05
1.20036e-05
-6.33637e-07
0.000102583
-1.22658e-05
3.02519e-06
-1.22588e-05
1.47917e-05
9.19293e-06
-9.60214e-07
-1.02021e-05
-4.18849e-06
-0.000163647
0.000154348
-7.49733e-05
1.90674e-06
8.08816e-05
-2.29743e-06
1.18118e-06
-3.70432e-08
-9.96724e-05
-3.44898e-06
0.000100452
2.0729e-06
-0.000103006
-4.19476e-06
-1.1582e-10
0.000103066
4.0978e-06
-1.05048e-07
-5.44116e-06
3.36596e-06
-4.97844e-06
1.13354e-08
4.12536e-06
2.56941e-07
-8.75977e-05
8.57985e-05
-0.000103083
1.522e-08
9.91303e-05
9.31041e-08
1.31295e-08
2.95638e-12
-0.000105011
-3.76085e-06
0.000104925
3.84695e-06
-0.000105011
-3.76083e-06
1.33734e-10
0.000104925
3.84697e-06
3.10494e-12
-3.54492e-06
3.09703e-06
-3.54477e-06
-1.13213e-08
3.09695e-06
-1.0944e-12
-0.000108758
0.000105012
-0.000108759
-1.52022e-08
0.000105013
8.51978e-13
-1.31176e-08
3.71094e-08
-0.000103007
-4.1949e-06
0.000103067
4.09808e-06
-9.96727e-05
-3.44971e-06
6.33563e-07
0.000100452
2.07413e-06
1.05078e-07
-4.9783e-06
4.12539e-06
-5.44172e-06
9.60166e-07
3.3669e-06
-2.56802e-07
-0.000103086
9.91324e-05
-8.76009e-05
-1.9064e-06
8.58007e-05
-9.303e-08
-1.18096e-06
-2.12065e-06
-9.95653e-05
1.2001e-05
0.000102581
-1.2263e-05
-0.000137602
-1.34844e-05
0.000132835
1.61305e-05
-3.02516e-06
9.19041e-06
-1.01994e-05
-1.2257e-05
1.47892e-05
4.18722e-06
-7.49732e-05
8.08806e-05
-0.000163637
0.00015434
2.29658e-06
6.30473e-07
-0.000128935
-1.42068e-05
0.000125688
1.68239e-05
-0.000104369
1.45589e-05
-4.2756e-07
0.000105481
-1.46129e-05
1.29145e-06
-1.38314e-05
1.6444e-05
1.34741e-05
-4.61461e-07
-1.35065e-05
-7.51007e-06
-0.000146417
0.000139721
-8.59987e-05
2.87297e-06
9.01745e-05
-5.9004e-06
2.45669e-06
3.10273e-07
-0.00010107
-1.18196e-06
0.000101706
-1.91739e-07
-0.000102793
-2.03946e-06
5.8016e-08
0.000102532
2.55287e-06
1.1036e-07
-2.00672e-06
8.16554e-07
-2.98284e-06
1.70991e-08
3.34922e-06
6.19634e-07
-8.5801e-05
8.68723e-05
-9.65539e-05
9.10458e-08
9.50431e-05
4.4746e-07
4.10174e-08
-4.15255e-11
-0.000104439
-2.18476e-06
0.000103859
2.8224e-06
-0.000104439
-2.18482e-06
-5.81373e-08
0.000103859
2.82255e-06
-5.01312e-12
-2.96953e-06
3.47288e-06
-2.96957e-06
-1.70807e-08
3.47296e-06
-2.83284e-11
-0.000102084
9.99901e-05
-0.000102084
-9.10449e-08
9.99906e-05
-1.45629e-11
-4.10118e-08
-3.10379e-07
-0.000102793
-2.03977e-06
0.000102532
2.55334e-06
-0.00010107
-1.18241e-06
4.27623e-07
0.000101705
-1.91466e-07
-1.10276e-07
-2.98312e-06
3.34965e-06
-2.00748e-06
4.61338e-07
8.18056e-07
-6.1954e-07
-9.65556e-05
9.50443e-05
-8.58022e-05
-2.87258e-06
8.68729e-05
-4.47363e-07
-2.45633e-06
-6.30633e-07
-0.000104367
1.45561e-05
0.000105479
-1.46099e-05
-0.000128931
-1.42039e-05
0.000125684
1.68206e-05
-1.29161e-06
1.34714e-05
-1.35036e-05
-1.38291e-05
1.6441e-05
7.50811e-06
-8.59968e-05
9.01723e-05
-0.00014641
0.000139714
5.89877e-06
-3.66242e-07
-0.000123036
-1.44504e-05
0.00012083
1.70224e-05
-0.000106212
1.56605e-05
-6.72033e-07
0.000106712
-1.58547e-05
7.73597e-08
-1.41883e-05
1.67629e-05
1.50377e-05
-5.26281e-07
-1.51653e-05
-9.9185e-06
-0.000134266
0.000129734
-9.33926e-05
3.25317e-06
9.58815e-05
-8.73384e-06
3.08571e-06
6.26705e-07
-0.000102234
-7.05787e-07
0.000102757
-1.11642e-06
-0.000102405
-9.4625e-07
1.70741e-07
0.000102415
1.39198e-06
4.82605e-07
-8.2173e-07
-7.14823e-07
-1.35987e-06
1.09107e-07
1.86025e-06
9.2254e-07
-8.83654e-05
8.99903e-05
-9.42995e-05
2.10551e-07
9.40653e-05
7.70911e-07
1.54581e-07
2.12215e-11
-0.000103385
-1.18936e-06
0.000103059
1.68605e-06
-0.000103385
-1.18942e-06
-1.7065e-07
0.000103059
1.68613e-06
5.44073e-12
-1.58123e-06
2.16399e-06
-1.58129e-06
-1.0906e-07
2.16409e-06
1.47348e-11
-9.85634e-05
9.75846e-05
-9.85638e-05
-2.10496e-07
9.75849e-05
4.60626e-12
-1.54508e-07
-6.26574e-07
-0.000102405
-9.46458e-07
0.000102415
1.39234e-06
-0.000102233
-7.0612e-07
6.7165e-07
0.000102756
-1.11534e-06
-4.82501e-07
-1.36013e-06
1.86067e-06
-8.22178e-07
5.25971e-07
-7.13692e-07
-9.2231e-07
-9.43004e-05
9.40658e-05
-8.83653e-05
-3.25283e-06
8.99897e-05
-7.70709e-07
-3.08533e-06
3.65928e-07
-0.00010621
1.56575e-05
0.00010671
-1.58517e-05
-0.000123032
-1.44471e-05
0.000120827
1.70186e-05
-7.76336e-08
1.50347e-05
-1.51623e-05
-1.41856e-05
1.67595e-05
9.91603e-06
-9.33901e-05
9.58787e-05
-0.00013426
0.000129729
8.73162e-06
-1.00421e-06
-0.000119019
-1.4643e-05
0.000117503
1.71633e-05
-0.000107057
1.62951e-05
-9.84573e-07
0.0001073
-1.65583e-05
-7.14231e-07
-1.43978e-05
1.6923e-05
1.58506e-05
-8.18121e-07
-1.60915e-05
-1.15532e-05
-0.000126047
0.000122958
-9.77433e-05
3.31679e-06
9.91683e-05
-1.07109e-05
3.27786e-06
7.97967e-07
-0.000103256
-6.86798e-07
0.000103723
-1.56218e-06
-0.000102539
-5.32667e-07
3.13465e-07
0.000102746
8.10087e-07
7.21672e-07
-6.69633e-07
-1.36911e-06
-6.76569e-07
2.34525e-07
1.04019e-06
1.15403e-06
-9.15611e-05
9.30371e-05
-9.41664e-05
3.09622e-07
9.44781e-05
1.03737e-06
2.59679e-07
4.16537e-11
-0.000102884
-6.74888e-07
0.000102837
1.03451e-06
-0.000102883
-6.74945e-07
-3.13298e-07
0.000102837
1.03455e-06
3.14465e-11
-8.88811e-07
1.29905e-06
-8.88867e-07
-2.34405e-07
1.29911e-06
4.01604e-11
-9.69554e-05
9.65901e-05
-9.69556e-05
-3.09495e-07
9.65902e-05
3.10179e-11
-2.59568e-07
-7.97853e-07
-0.000102538
-5.32756e-07
0.000102745
8.10342e-07
-0.000103255
-6.87129e-07
9.84094e-07
0.000103721
-1.56115e-06
-7.21551e-07
-6.76721e-07
1.0405e-06
-6.70001e-07
8.17692e-07
-1.36807e-06
-1.15372e-06
-9.41666e-05
9.4478e-05
-9.15601e-05
-3.3165e-06
9.30358e-05
-1.03709e-06
-3.27753e-06
1.00385e-06
-0.000107055
1.6292e-05
0.000107298
-1.65553e-05
-0.000119016
-1.46396e-05
0.0001175
1.71593e-05
7.13885e-07
1.58475e-05
-1.60885e-05
-1.43948e-05
1.69193e-05
1.15504e-05
-9.77404e-05
9.91654e-05
-0.000126043
0.000122953
1.07083e-05
-1.40936e-06
-0.000116246
-1.47936e-05
0.000115183
1.72652e-05
-0.000107476
1.66917e-05
-1.2831e-06
0.000107604
-1.69457e-05
-1.21749e-06
-1.45704e-05
1.70453e-05
1.63455e-05
-1.12665e-06
-1.66125e-05
-1.26289e-05
-0.000120415
0.00011825
-0.000100229
3.24281e-06
0.000101049
-1.20277e-05
3.25699e-06
8.56713e-07
-0.000104148
-7.62663e-07
0.000104538
-1.76742e-06
-0.000102995
-4.16734e-07
4.57127e-07
0.000103283
5.28856e-07
8.31095e-07
-7.17243e-07
-1.66544e-06
-4.51599e-07
3.95638e-07
6.37663e-07
1.30958e-06
-9.43479e-05
9.55185e-05
-9.49078e-05
3.86199e-07
9.54145e-05
1.22888e-06
3.47578e-07
5.68221e-11
-0.000102903
-3.63185e-07
0.000103049
6.75167e-07
-0.000102903
-3.63222e-07
-4.5694e-07
0.000103048
6.75168e-07
4.91026e-11
-4.91237e-07
8.20681e-07
-4.91287e-07
-3.95461e-07
8.20697e-07
5.41178e-11
-9.64464e-05
9.64694e-05
-9.64464e-05
-3.86043e-07
9.64693e-05
4.70237e-11
-3.47436e-07
-8.56631e-07
-0.000102994
-4.16748e-07
0.000103282
5.29054e-07
-0.000104146
-7.6297e-07
1.28255e-06
0.000104536
-1.76644e-06
-8.30997e-07
-4.51645e-07
6.37884e-07
-7.17557e-07
1.12614e-06
-1.66444e-06
-1.30923e-06
-9.49075e-05
9.54139e-05
-9.43464e-05
-3.24259e-06
9.55168e-05
-1.22855e-06
-3.25674e-06
1.40897e-06
-0.000107474
1.66885e-05
0.000107602
-1.69427e-05
-0.000116243
-1.47901e-05
0.000115181
1.72612e-05
1.2171e-06
1.63424e-05
-1.66095e-05
-1.45673e-05
1.70415e-05
1.26259e-05
-0.000100226
0.000101046
-0.000120411
0.000118247
1.20248e-05
-1.66618e-06
-0.000114291
-1.48749e-05
0.000113533
1.72997e-05
-0.000107702
1.69275e-05
-1.53303e-06
0.000107779
-1.71375e-05
-1.53751e-06
-1.46921e-05
1.71217e-05
1.66569e-05
-1.40075e-06
-1.68914e-05
-1.3316e-05
-0.000116445
0.000114886
-0.000101665
3.11999e-06
0.000102157
-1.2887e-05
3.15356e-06
8.39289e-07
-0.000104892
-8.29112e-07
0.000105215
-1.86664e-06
-0.000103587
-4.00295e-07
5.27743e-07
0.000103902
3.96539e-07
8.46631e-07
-7.91683e-07
-1.80955e-06
-3.97118e-07
4.9367e-07
4.45898e-07
1.39711e-06
-9.65326e-05
9.74264e-05
-9.59542e-05
4.37508e-07
9.65135e-05
1.34776e-06
4.10932e-07
6.9967e-11
-0.000103249
-1.96403e-07
0.000103491
4.81722e-07
-0.000103249
-1.96417e-07
-5.27544e-07
0.000103491
4.81698e-07
6.30225e-11
-2.63878e-07
5.5728e-07
-2.63903e-07
-4.93478e-07
5.57267e-07
6.44384e-11
-9.66164e-05
9.68574e-05
-9.66162e-05
-4.37332e-07
9.68572e-05
5.91315e-11
-4.10767e-07
-8.39245e-07
-0.000103586
-4.00249e-07
0.000103901
3.96685e-07
-0.00010489
-8.29408e-07
1.53243e-06
0.000105214
-1.86569e-06
-8.4657e-07
-3.97099e-07
4.46063e-07
-7.91984e-07
1.40018e-06
-1.80859e-06
-1.39675e-06
-9.59535e-05
9.65126e-05
-9.65308e-05
-3.11983e-06
9.74245e-05
-1.3474e-06
-3.15337e-06
1.66578e-06
-0.0001077
1.69243e-05
0.000107777
-1.71346e-05
-0.000114289
-1.48715e-05
0.000113531
1.72957e-05
1.53711e-06
1.66538e-05
-1.68885e-05
-1.4689e-05
1.71179e-05
1.33129e-05
-0.000101663
0.000102154
-0.000116442
0.000114883
1.28841e-05
-1.82864e-06
-0.000112889
-1.48887e-05
0.000112338
1.7268e-05
-0.000107847
1.70384e-05
-1.72831e-06
0.000107905
-1.71969e-05
-1.73949e-06
-1.47341e-05
1.71178e-05
1.68232e-05
-1.62039e-06
-1.70105e-05
-1.37381e-05
-0.000113574
0.000112423
-0.000102535
2.98781e-06
0.000102847
-1.34216e-05
3.02393e-06
7.81986e-07
-0.000105509
-8.72837e-07
0.000105779
-1.90743e-06
-0.000104216
-4.21464e-07
5.57578e-07
0.000104528
3.3348e-07
8.05766e-07
-8.47411e-07
-1.87268e-06
-4.04959e-07
5.41191e-07
3.56131e-07
1.43418e-06
-9.8196e-05
9.88768e-05
-9.70654e-05
4.6632e-07
9.76118e-05
1.40689e-06
4.5e-07
7.95748e-11
-0.000103757
-1.13446e-07
0.000104041
3.8648e-07
-0.000103757
-1.13443e-07
-5.57375e-07
0.000104041
3.86443e-07
7.44451e-11
-1.45925e-07
4.21143e-07
-1.45932e-07
-5.40991e-07
4.21113e-07
7.04427e-11
-9.71614e-05
9.75142e-05
-9.71611e-05
-4.66133e-07
9.75139e-05
6.72515e-11
-4.49819e-07
-7.81977e-07
-0.000104215
-4.21377e-07
0.000104527
3.33598e-07
-0.000105508
-8.73119e-07
1.72768e-06
0.000105778
-1.90654e-06
-8.05742e-07
-4.04895e-07
3.56266e-07
-8.477e-07
1.61978e-06
-1.87177e-06
-1.43381e-06
-9.70645e-05
9.76107e-05
-9.8194e-05
-2.98769e-06
9.88748e-05
-1.40653e-06
-3.02379e-06
1.82823e-06
-0.000107845
1.70353e-05
0.000107903
-1.71941e-05
-0.000112887
-1.48853e-05
0.000112336
1.72642e-05
1.73909e-06
1.68201e-05
-1.70076e-05
-1.47311e-05
1.71141e-05
1.3735e-05
-0.000102532
0.000102844
-0.000113571
0.000112421
1.34185e-05
-1.92956e-06
-0.000111864
-1.48391e-05
0.000111457
1.71755e-05
-0.000107961
1.70388e-05
-1.87412e-06
0.000108011
-1.7144e-05
-1.86599e-06
-1.47086e-05
1.70481e-05
1.68677e-05
-1.78736e-06
-1.70025e-05
-1.39698e-05
-0.000111446
0.000110577
-0.00010309
2.85922e-06
0.0001033
-1.37321e-05
2.89272e-06
7.08152e-07
-0.000106027
-8.92564e-07
0.000106255
-1.91845e-06
-0.000104829
-4.55646e-07
5.60607e-07
0.000105123
3.09621e-07
7.38463e-07
-8.77856e-07
-1.89569e-06
-4.33394e-07
5.55655e-07
3.14671e-07
1.43795e-06
-9.94671e-05
9.99958e-05
-9.81341e-05
4.77332e-07
9.86391e-05
1.42462e-06
4.68868e-07
8.55495e-11
-0.000104331
-7.72451e-08
0.000104625
3.43453e-07
-0.000104331
-7.72234e-08
-5.60409e-07
0.000104625
3.43404e-07
8.21254e-11
-9.02271e-08
3.56408e-07
-9.02157e-08
-5.55456e-07
3.56366e-07
7.25325e-11
-9.78928e-05
9.82928e-05
-9.78924e-05
-4.77142e-07
9.82924e-05
7.11341e-11
-4.68681e-07
-7.08173e-07
-0.000104829
-4.55514e-07
0.000105122
3.09699e-07
-0.000106025
-8.92834e-07
1.87349e-06
0.000106254
-1.9176e-06
-7.3847e-07
-4.33286e-07
3.14768e-07
-8.78134e-07
1.78674e-06
-1.89482e-06
-1.43759e-06
-9.8133e-05
9.8638e-05
-9.9465e-05
-2.85914e-06
9.99937e-05
-1.42426e-06
-2.89262e-06
1.92917e-06
-0.00010796
1.70359e-05
0.000108009
-1.71413e-05
-0.000111863
-1.48357e-05
0.000111456
1.71719e-05
1.86558e-06
1.68647e-05
-1.69998e-05
-1.47057e-05
1.70446e-05
1.39668e-05
-0.000103087
0.000103297
-0.000111444
0.000110575
1.37291e-05
-1.9885e-06
-0.000111102
-1.47303e-05
0.000110795
1.70263e-05
-0.000108061
1.6946e-05
-1.97812e-06
0.000108105
-1.70007e-05
-1.94341e-06
-1.46314e-05
1.693e-05
1.68221e-05
-1.91025e-06
-1.69054e-05
-1.40591e-05
-0.000109834
0.000109162
-0.000103465
2.73828e-06
0.000103613
-1.38879e-05
2.76933e-06
6.3006e-07
-0.000106467
-8.96192e-07
0.000106662
-1.90753e-06
-0.000105401
-4.94149e-07
5.48056e-07
0.000105666
3.10749e-07
6.62376e-07
-8.88458e-07
-1.89556e-06
-4.70239e-07
5.49867e-07
3.04802e-07
1.4208e-06
-0.00010046
0.000100881
-9.91129e-05
4.7589e-07
9.95637e-05
1.41704e-06
4.73027e-07
8.73565e-11
-0.000104913
-7.0011e-08
0.000105195
3.35564e-07
-0.000104912
-6.99743e-08
-5.47865e-07
0.000105195
3.35504e-07
8.59001e-11
-7.01501e-08
3.32536e-07
-7.01211e-08
-5.49675e-07
3.32482e-07
7.24622e-11
-9.86956e-05
9.91014e-05
-9.86952e-05
-4.75702e-07
9.9101e-05
7.19451e-11
-4.72839e-07
-6.30107e-07
-0.0001054
-4.93981e-07
0.000105665
3.10794e-07
-0.000106465
-8.96454e-07
1.97749e-06
0.000106661
-1.90673e-06
-6.62412e-07
-4.70089e-07
3.04862e-07
-8.88725e-07
1.90962e-06
-1.89475e-06
-1.42044e-06
-9.91117e-05
9.95625e-05
-0.000100458
-2.73823e-06
0.000100879
-1.41669e-06
-2.76927e-06
1.98813e-06
-0.000108059
1.69431e-05
0.000108104
-1.69981e-05
-0.000111101
-1.47271e-05
0.000110793
1.70228e-05
1.94303e-06
1.68191e-05
-1.69027e-05
-1.46285e-05
1.69266e-05
1.40561e-05
-0.000103462
0.000103611
-0.000109831
0.00010916
1.3885e-05
-2.02003e-06
-0.000110521
-1.45857e-05
0.00011028
1.6846e-05
-0.00010815
1.67913e-05
-2.04747e-06
0.000108186
-1.68004e-05
-1.98724e-06
-1.45071e-05
1.67685e-05
1.67006e-05
-1.99611e-06
-1.67362e-05
-1.40535e-05
-0.000108583
0.000108051
-0.00010373
2.62902e-06
0.000103839
-1.3928e-05
2.65573e-06
5.66018e-07
-0.000106845
-8.97693e-07
0.00010701
-1.88017e-06
-0.000105911
-5.28457e-07
5.30313e-07
0.000106145
3.30807e-07
5.85411e-07
-8.8815e-07
-1.87641e-06
-5.08425e-07
5.33402e-07
3.15486e-07
1.39027e-06
-0.000101255
0.000101596
-9.99809e-05
4.67343e-07
0.000100375
1.39328e-06
4.67596e-07
8.52576e-11
-0.000105463
-8.09887e-08
0.000105722
3.52899e-07
-0.000105463
-8.09485e-08
-5.30122e-07
0.000105721
3.52832e-07
8.63469e-11
-7.32538e-08
3.38267e-07
-7.32141e-08
-5.33216e-07
3.38204e-07
7.14895e-11
-9.94957e-05
9.98819e-05
-9.94953e-05
-4.67158e-07
9.98816e-05
7.13759e-11
-4.67411e-07
-5.66024e-07
-0.00010591
-5.28295e-07
0.000106144
3.30824e-07
-0.000106844
-8.97923e-07
2.04685e-06
0.000107009
-1.87939e-06
-5.85474e-07
-5.08251e-07
3.15518e-07
-8.8841e-07
1.99549e-06
-1.87563e-06
-1.38993e-06
-9.99798e-05
0.000100374
-0.000101253
-2.62898e-06
0.000101594
-1.39294e-06
-2.65568e-06
2.01968e-06
-0.000108148
1.67885e-05
0.000108185
-1.67979e-05
-0.000110519
-1.45825e-05
0.000110279
1.68426e-05
1.98686e-06
1.66977e-05
-1.67337e-05
-1.45043e-05
1.67652e-05
1.40506e-05
-0.000103728
0.000103837
-0.000108581
0.000108049
1.39251e-05
-2.03128e-06
-0.000110059
-1.4402e-05
0.000109861
1.66315e-05
-0.000108221
1.65734e-05
-2.08736e-06
0.000108244
-1.65413e-05
-2.00786e-06
-1.43463e-05
1.6575e-05
1.65179e-05
-2.04907e-06
-1.65108e-05
-1.39684e-05
-0.000107588
0.000107154
-0.000103921
2.52929e-06
0.000103997
-1.38831e-05
2.55287e-06
5.22019e-07
-0.000107159
-9.06295e-07
0.00010729
-1.8346e-06
-0.00010636
-5.53908e-07
5.11167e-07
0.000106559
3.65685e-07
5.38023e-07
-8.94656e-07
-1.84116e-06
-5.36468e-07
5.15743e-07
3.43518e-07
1.35072e-06
-0.000101897
0.000102169
-0.00010074
4.54776e-07
0.000101082
1.35791e-06
4.56954e-07
8.31006e-11
-0.000105962
-1.02617e-07
0.000106188
3.87697e-07
-0.000105962
-1.02573e-07
-5.10983e-07
0.000106188
3.87625e-07
8.32976e-11
-8.99342e-08
3.65027e-07
-8.98936e-08
-5.15558e-07
3.64959e-07
6.95506e-11
-0.000100249
0.000100601
-0.000100249
-4.54596e-07
0.000100601
6.99739e-11
-4.56773e-07
-5.22034e-07
-0.000106359
-5.53743e-07
0.000106558
3.65683e-07
-0.000107157
-9.06508e-07
2.08675e-06
0.000107289
-1.83386e-06
-5.38035e-07
-5.36309e-07
3.43526e-07
-8.94879e-07
2.04846e-06
-1.84041e-06
-1.35039e-06
-0.000100739
0.000101081
-0.000101895
-2.52926e-06
0.000102167
-1.35759e-06
-2.55284e-06
2.03095e-06
-0.000108219
1.65707e-05
0.000108243
-1.65389e-05
-0.000110058
-1.43989e-05
0.00010986
1.66281e-05
2.00751e-06
1.65151e-05
-1.65084e-05
-1.43436e-05
1.65718e-05
1.39656e-05
-0.000103919
0.000103995
-0.000107586
0.000107153
1.38802e-05
-2.03073e-06
-0.000109671
-1.42078e-05
0.000109496
1.6414e-05
-0.000108264
1.63226e-05
-2.10785e-06
0.000108269
-1.62506e-05
-2.01171e-06
-1.41515e-05
1.63531e-05
1.6278e-05
-2.07739e-06
-1.62315e-05
-1.38395e-05
-0.000106772
0.000106404
-0.000104046
2.44125e-06
0.000104088
-1.37695e-05
2.459e-06
4.84114e-07
-0.000107406
-9.16848e-07
0.000107504
-1.77265e-06
-0.000106738
-5.79847e-07
4.91054e-07
0.000106897
4.13061e-07
4.97233e-07
-9.03746e-07
-1.78709e-06
-5.6135e-07
4.95878e-07
3.84136e-07
1.30899e-06
-0.000102407
0.000102623
-0.000101394
4.40546e-07
0.000101683
1.31679e-06
4.43321e-07
8.05555e-11
-0.000106393
-1.32227e-07
0.00010658
4.36252e-07
-0.000106393
-1.3218e-07
-4.90879e-07
0.00010658
4.36177e-07
8.10284e-11
-1.15486e-07
4.06302e-07
-1.15441e-07
-4.95701e-07
4.0623e-07
6.65224e-11
-0.000100929
0.000101237
-0.000100928
-4.40374e-07
0.000101237
6.75517e-11
-4.43147e-07
-4.8413e-07
-0.000106737
-5.7968e-07
0.000106897
4.13045e-07
-0.000107405
-9.17049e-07
2.10726e-06
0.000107503
-1.77194e-06
-4.9725e-07
-5.61185e-07
3.84127e-07
-9.03956e-07
2.0768e-06
-1.78637e-06
-1.30868e-06
-0.000101393
0.000101682
-0.000102406
-2.44122e-06
0.000102621
-1.31648e-06
-2.45897e-06
2.03041e-06
-0.000108263
1.632e-05
0.000108268
-1.62483e-05
-0.00010967
-1.42047e-05
0.000109495
1.64107e-05
2.01138e-06
1.62753e-05
-1.62292e-05
-1.41488e-05
1.635e-05
1.38366e-05
-0.000104044
0.000104086
-0.00010677
0.000106402
1.37667e-05
-2.01726e-06
-0.000109318
-1.39852e-05
0.000109144
1.61768e-05
-0.000108268
1.60259e-05
-2.10946e-06
0.000108247
-1.59122e-05
-2.0051e-06
-1.39442e-05
1.61267e-05
1.60018e-05
-2.08793e-06
-1.59186e-05
-1.36358e-05
-0.000106074
0.000105725
-0.0001041
2.35603e-06
0.000104134
-1.36144e-05
2.37534e-06
4.51541e-07
-0.000107584
-9.30677e-07
0.000107643
-1.68935e-06
-0.000107035
-6.07273e-07
4.70641e-07
0.00010715
4.72813e-07
4.62349e-07
-9.15239e-07
-1.71573e-06
-5.87561e-07
4.75659e-07
4.37042e-07
1.26417e-06
-0.000102809
0.00010297
-0.00010194
4.2541e-07
0.000102172
1.27388e-06
4.28608e-07
7.43248e-11
-0.000106743
-1.6852e-07
0.000106884
4.97756e-07
-0.000106743
-1.68473e-07
-4.70479e-07
0.000106884
4.97682e-07
7.78669e-11
-1.48189e-07
4.60701e-07
-1.48143e-07
-4.7549e-07
4.60628e-07
5.76543e-11
-0.000101517
0.000101774
-0.000101517
-4.2526e-07
0.000101774
6.33941e-11
-4.28446e-07
-4.5155e-07
-0.000107034
-6.0712e-07
0.000107149
4.72793e-07
-0.000107584
-9.3088e-07
2.10892e-06
0.000107643
-1.68868e-06
-4.62363e-07
-5.87402e-07
4.37024e-07
-9.15441e-07
2.08737e-06
-1.71504e-06
-1.2639e-06
-0.000101939
0.000102171
-0.000102807
-2.35599e-06
0.000102969
-1.27359e-06
-2.37529e-06
2.01692e-06
-0.000108267
1.60234e-05
0.000108246
-1.591e-05
-0.000109317
-1.39822e-05
0.000109143
1.61736e-05
2.00478e-06
1.59992e-05
-1.59164e-05
-1.39416e-05
1.61236e-05
1.36332e-05
-0.000104099
0.000104133
-0.000106072
0.000105723
1.36117e-05
-1.99973e-06
-0.00010896
-1.37636e-05
0.000108775
1.59483e-05
-0.000108214
1.57027e-05
-2.09979e-06
0.00010816
-1.55491e-05
-1.98778e-06
-1.37209e-05
1.58925e-05
1.56957e-05
-2.08252e-06
-1.55677e-05
-1.34199e-05
-0.000105398
0.000105054
-0.000104143
2.28046e-06
0.000104145
-1.33936e-05
2.29322e-06
4.24387e-07
-0.000107683
-9.49791e-07
0.000107697
-1.58821e-06
-0.000107241
-6.40383e-07
4.51425e-07
0.000107306
5.47972e-07
4.32811e-07
-9.31277e-07
-1.62376e-06
-6.16496e-07
4.55932e-07
5.02544e-07
1.22316e-06
-0.000103101
0.000103209
-0.000102373
4.10573e-07
0.000102545
1.23097e-06
4.13746e-07
3.4889e-11
-0.000106999
-2.11471e-07
0.000107088
5.73678e-07
-0.000106999
-2.11437e-07
-4.51342e-07
0.000107088
5.73617e-07
6.02297e-11
-1.87258e-07
5.28431e-07
-1.87215e-07
-4.55794e-07
5.28362e-07
-9.11462e-12
-0.000102001
0.0001022
-0.000102
-4.10557e-07
0.000102199
3.77161e-11
-4.13629e-07
-4.24473e-07
-0.00010724
-6.40272e-07
0.000107306
5.47992e-07
-0.000107682
-9.50044e-07
2.09921e-06
0.000107696
-1.58751e-06
-4.32823e-07
-6.16356e-07
5.02532e-07
-9.31495e-07
2.08203e-06
-1.6231e-06
-1.22303e-06
-0.000102372
0.000102544
-0.0001031
-2.28049e-06
0.000103207
-1.23074e-06
-2.29325e-06
2.00026e-06
-0.000108213
1.57003e-05
0.000108159
-1.55471e-05
-0.000108959
-1.37609e-05
0.000108775
1.59451e-05
1.98757e-06
1.56931e-05
-1.55655e-05
-1.37183e-05
1.58894e-05
1.34182e-05
-0.000104141
0.000104143
-0.000105396
0.000105054
1.33913e-05
-1.97422e-06
-0.000108575
-1.35294e-05
0.000108364
1.57147e-05
-0.000108083
1.5348e-05
-2.07801e-06
0.000107984
-1.51453e-05
-1.96692e-06
-1.35024e-05
1.56691e-05
1.53719e-05
-2.06798e-06
-1.51939e-05
-1.31918e-05
-0.000104716
0.000104379
-0.00010413
2.21209e-06
0.000104074
-1.3165e-05
2.22193e-06
4.02123e-07
-0.000107687
-9.75637e-07
0.000107648
-1.46537e-06
-0.000107343
-6.81964e-07
4.32891e-07
0.000107349
6.44806e-07
4.08448e-07
-9.52778e-07
-1.51409e-06
-6.53841e-07
4.37262e-07
5.88422e-07
1.18488e-06
-0.000103287
0.000103338
-0.000102683
3.95768e-07
0.00010279
1.1908e-06
3.98974e-07
7.60238e-11
-0.000107148
-2.6201e-07
0.000107176
6.65993e-07
-0.000107147
-2.62026e-07
-4.32691e-07
0.000107176
6.65941e-07
3.41101e-11
-2.33478e-07
6.11458e-07
-2.33468e-07
-4.37186e-07
6.11408e-07
-6.15636e-11
-0.000102365
0.000102499
-0.000102365
-3.95942e-07
0.000102499
-6.09286e-11
-3.99115e-07
-4.01972e-07
-0.000107342
-6.82015e-07
0.000107349
6.44831e-07
-0.000107687
-9.76132e-07
2.07787e-06
0.000107648
-1.46466e-06
-4.08535e-07
-6.53811e-07
5.88466e-07
-9.53163e-07
2.06745e-06
-1.51336e-06
-1.18523e-06
-0.000102682
0.000102789
-0.000103285
-2.2131e-06
0.000103337
-1.19099e-06
-2.2225e-06
1.97391e-06
-0.00010808
1.53446e-05
0.000107981
-1.5141e-05
-0.000108577
-1.3524e-05
0.000108366
1.57088e-05
1.96767e-06
1.53699e-05
-1.51918e-05
-1.34997e-05
1.56657e-05
1.31867e-05
-0.000104128
0.000104073
-0.000104716
0.000104379
1.31621e-05
-1.94905e-06
-0.00010813
-1.32801e-05
0.000107875
1.54837e-05
-0.000107864
1.49612e-05
-2.04942e-06
0.000107713
-1.47103e-05
-1.94108e-06
-1.32683e-05
1.5444e-05
1.50053e-05
-2.04327e-06
-1.47826e-05
-1.29416e-05
-0.000104048
0.00010371
-0.000103985
2.14503e-06
0.000103859
-1.29376e-05
2.15748e-06
3.84356e-07
-0.000107582
-1.01684e-06
0.00010748
-1.31484e-06
-0.000107324
-7.34011e-07
4.16236e-07
0.000107263
7.63166e-07
3.88765e-07
-9.8606e-07
-1.38012e-06
-6.99739e-07
4.19937e-07
6.93993e-07
1.15163e-06
-0.000103353
0.00010333
-0.000102862
3.8252e-07
0.000102897
1.15674e-06
3.8517e-07
1.39411e-10
-0.000107171
-3.22674e-07
0.000107131
7.79403e-07
-0.000107171
-3.22675e-07
-4.15872e-07
0.000107131
7.79315e-07
1.10568e-10
-2.88103e-07
7.12824e-07
-2.88118e-07
-4.19648e-07
7.12757e-07
4.00101e-11
-0.000102596
0.000102656
-0.000102596
-3.82399e-07
0.000102656
-1.63715e-11
-3.85215e-07
-3.83884e-07
-0.000107323
-7.33974e-07
0.000107262
7.63013e-07
-0.000107582
-1.01707e-06
2.04972e-06
0.00010748
-1.31451e-06
-3.88456e-07
-6.99769e-07
6.93939e-07
-9.86459e-07
2.04329e-06
-1.3796e-06
-1.15134e-06
-0.000102861
0.000102896
-0.000103352
-2.145e-06
0.000103328
-1.15681e-06
-2.15797e-06
1.94554e-06
-0.000107861
1.49559e-05
0.000107713
-1.47038e-05
-0.000108131
-1.32746e-05
0.000107874
1.54768e-05
1.93933e-06
1.50009e-05
-1.47772e-05
-1.3263e-05
1.54376e-05
1.29357e-05
-0.000103983
0.000103858
-0.000104049
0.00010371
1.29327e-05
-1.91943e-06
-0.000107591
-1.30417e-05
0.000107283
1.52691e-05
-0.000107532
1.45627e-05
-2.01307e-06
0.000107307
-1.42434e-05
-1.91652e-06
-1.30117e-05
1.52128e-05
1.46032e-05
-2.00933e-06
-1.43296e-05
-1.26653e-05
-0.000103374
0.000102997
-0.000103694
2.08502e-06
0.000103507
-1.26762e-05
2.09205e-06
3.70703e-07
-0.000107347
-1.07119e-06
0.000107171
-1.13706e-06
-0.000107166
-7.96427e-07
4.00718e-07
0.000107026
9.057e-07
3.73276e-07
-1.03374e-06
-1.21558e-06
-7.57171e-07
4.04008e-07
8.23497e-07
1.11589e-06
-0.000103266
0.000103164
-0.000102889
3.69314e-07
0.000102839
1.12174e-06
3.72062e-07
1.28183e-10
-0.000107052
-3.94294e-07
0.000106932
9.15508e-07
-0.000107052
-3.94247e-07
-4.00416e-07
0.000106931
9.1543e-07
1.52642e-10
-3.53885e-07
8.3634e-07
-3.53875e-07
-4.03623e-07
8.36255e-07
8.60175e-11
-0.000102674
0.000102649
-0.000102674
-3.69119e-07
0.000102649
8.32628e-11
-3.71871e-07
-3.70443e-07
-0.000107165
-7.96259e-07
0.000107026
9.05666e-07
-0.000107347
-1.07142e-06
2.01265e-06
0.000107171
-1.13602e-06
-3.72822e-07
-7.57109e-07
8.23391e-07
-1.03405e-06
2.00937e-06
-1.21491e-06
-1.11553e-06
-0.000102888
0.000102838
-0.000103265
-2.08469e-06
0.000103163
-1.1214e-06
-2.0919e-06
1.91566e-06
-0.000107536
1.45567e-05
0.000107313
-1.42364e-05
-0.000107587
-1.30349e-05
0.000107277
1.52607e-05
1.91223e-06
1.45965e-05
-1.43222e-05
-1.30048e-05
1.52043e-05
1.26605e-05
-0.000103693
0.000103504
-0.000103375
0.000103001
1.267e-05
-1.87805e-06
-0.000106934
-1.28251e-05
0.000106547
1.50894e-05
-0.000107053
1.41454e-05
-1.97447e-06
0.000106753
-1.37492e-05
-1.87966e-06
-1.27943e-05
1.5023e-05
1.42074e-05
-1.97401e-06
-1.3859e-05
-1.23797e-05
-0.000102604
0.000102158
-0.000103278
2.02726e-06
0.000103016
-1.24006e-05
2.03553e-06
3.59522e-07
-0.000106958
-1.13273e-06
0.000106694
-9.37797e-07
-0.000106846
-8.69717e-07
3.86447e-07
0.000106616
1.0723e-06
3.61e-07
-1.09125e-06
-1.03015e-06
-8.23936e-07
3.89376e-07
9.7619e-07
1.08547e-06
-0.000103018
0.000102827
-0.000102746
3.57846e-07
0.000102604
1.09024e-06
3.5999e-07
-7.85586e-11
-0.000106768
-4.77182e-07
0.000106556
1.07601e-06
-0.000106768
-4.77034e-07
-3.86703e-07
0.000106556
1.07588e-06
8.4233e-12
-4.29922e-07
9.83007e-07
-4.29798e-07
-3.894e-07
9.829e-07
-1.68819e-11
-0.000102579
0.00010246
-0.000102579
-3.57876e-07
0.00010246
2.70733e-11
-3.59903e-07
-3.60363e-07
-0.000106845
-8.69071e-07
0.000106616
1.07198e-06
-0.000106957
-1.13131e-06
1.97224e-06
0.000106694
-9.38026e-07
-3.61402e-07
-8.23405e-07
9.75997e-07
-1.09014e-06
1.97229e-06
-1.02979e-06
-1.0854e-06
-0.000102745
0.000102603
-0.000103018
-2.02716e-06
0.000102828
-1.08995e-06
-2.03509e-06
1.88292e-06
-0.000107055
1.41512e-05
0.000106748
-1.37553e-05
-0.000106933
-1.2833e-05
0.000106553
1.50961e-05
1.87927e-06
1.42095e-05
-1.38584e-05
-1.27996e-05
1.50226e-05
1.23825e-05
-0.000103278
0.00010302
-0.000102602
0.000102151
1.24005e-05
-1.84702e-06
-0.000106114
-1.26173e-05
0.000105635
1.49434e-05
-0.000106415
1.3708e-05
-1.93196e-06
0.000106017
-1.3225e-05
-1.84356e-06
-1.25805e-05
1.4858e-05
1.37778e-05
-1.93151e-06
-1.33519e-05
-1.20926e-05
-0.000101693
0.000101168
-0.000102699
1.97405e-06
0.00010234
-1.21152e-05
1.98009e-06
3.52292e-07
-0.000106389
-1.20901e-06
0.000106025
-7.11233e-07
-0.00010634
-9.56511e-07
3.73737e-07
0.000106007
1.26769e-06
3.52063e-07
-1.15926e-06
-8.18703e-07
-9.02525e-07
3.7594e-07
1.15474e-06
1.05674e-06
-0.000102588
0.000102296
-0.000102413
3.4678e-07
0.000102166
1.06019e-06
3.48722e-07
1.42584e-10
-0.000106295
-5.73204e-07
0.000105978
1.26376e-06
-0.000106295
-5.73208e-07
-3.73418e-07
0.000105978
1.2637e-06
3.34616e-11
-5.18392e-07
1.15485e-06
-5.1833e-07
-3.75852e-07
1.15475e-06
8.76978e-11
-0.00010229
0.000102063
-0.00010229
-3.46592e-07
0.000102063
4.19065e-11
-3.48623e-07
-3.52093e-07
-0.00010634
-9.56574e-07
0.000106007
1.2677e-06
-0.000106388
-1.20953e-06
1.93124e-06
0.000106025
-7.10499e-07
-3.52072e-07
-9.02304e-07
1.15455e-06
-1.15936e-06
1.9313e-06
-8.18445e-07
-1.05663e-06
-0.000102413
0.000102166
-0.000102588
-1.97408e-06
0.000102296
-1.06001e-06
-1.97988e-06
1.84325e-06
-0.000106411
1.37026e-05
0.000106017
-1.32204e-05
-0.000106116
-1.26131e-05
0.000105635
1.49375e-05
1.84511e-06
1.37728e-05
-1.33497e-05
-1.2574e-05
1.48554e-05
1.20893e-05
-0.0001027
0.00010234
-0.00010169
0.000101166
1.21125e-05
-1.81332e-06
-0.000105106
-1.2448e-05
0.000104525
1.48421e-05
-0.000105568
1.32694e-05
-1.88488e-06
0.00010505
-1.26803e-05
-1.81037e-06
-1.23984e-05
1.47374e-05
1.33505e-05
-1.88824e-06
-1.28236e-05
-1.18074e-05
-0.000100601
9.996e-05
-0.000101931
1.9248e-06
0.000101468
-1.18307e-05
1.92958e-06
3.48768e-07
-0.000105612
-1.29482e-06
0.000105135
-4.61642e-07
-0.000105623
-1.05859e-06
3.62039e-07
0.000105174
1.49428e-06
3.46489e-07
-1.23929e-06
-5.83006e-07
-9.95789e-07
3.63835e-07
1.36325e-06
1.03108e-06
-0.000101953
0.000101552