/*--------------------------------*- C++ -*----------------------------------*\
  =========                 |
  \\      /  F ield         | OpenFOAM: The Open Source CFD Toolbox
   \\    /   O peration     | Website:  https://openfoam.org
    \\  /    A nd           | Version:  9
     \\/     M anipulation  |
\*---------------------------------------------------------------------------*/
FoamFile
{
    format      ascii;
    class       volScalarField;
    location    "0.8";
    object      k;
}
// * * * * * * * * * * * * * * * * * * * * * * * * * * * * * * * * * * * * * //

dimensions      [0 2 -2 0 0 0 0];

internalField   nonuniform List<scalar> 
36360
(
0.0715622
0.0728103
0.0121043
0.0154698
0.00979433
0.0083252
0.00424435
0.00380296
0.0105445
0.0030294
0.00377498
0.00312206
0.00353981
0.00304086
0.0033884
0.00349469
0.00263372
0.00263373
0.00324692
0.00324692
0.00309799
0.00309799
0.00349071
0.0034907
0.0030293
0.0105435
0.00312209
0.00377496
0.00304088
0.00353975
0.00349468
0.00338839
0.0728055
0.0715569
0.0154693
0.0121038
0.00832462
0.00979378
0.00380294
0.00424433
0.326483
0.263179
0.212666
0.175484
0.0838976
0.0621299
0.0356347
0.0287747
0.102911
0.0217757
0.0448918
0.0062299
0.0187044
0.0039715
0.00662441
0.00300455
0.00315365
0.0031533
0.00231958
0.00231952
0.0025076
0.00250758
0.00276146
0.00276146
0.0217723
0.102906
0.00622913
0.0448878
0.0039712
0.0187027
0.00300449
0.00662391
0.263176
0.326483
0.175477
0.212657
0.0621278
0.0838962
0.0287727
0.0356316
0.450906
0.368084
0.401652
0.325443
0.141897
0.106898
0.118964
0.088572
0.181143
0.074365
0.148267
0.0509613
0.0494597
0.0144452
0.0362451
0.00790993
0.0174789
0.0174747
0.00758845
0.00758714
0.00309829
0.00309798
0.00260161
0.00260155
0.0743576
0.181141
0.0509569
0.148264
0.0144431
0.0494584
0.00790927
0.036244
0.368094
0.450931
0.325447
0.401664
0.106901
0.141906
0.0885728
0.118967
0.503335
0.414749
0.482837
0.396383
0.165438
0.126497
0.156408
0.118899
0.218486
0.102042
0.203673
0.0909735
0.0641924
0.0233795
0.0584333
0.0197298
0.0350143
0.0350061
0.0274195
0.0274145
0.00503472
0.00503345
0.00410439
0.00410384
0.102032
0.218488
0.090967
0.203674
0.0233758
0.0641917
0.0197277
0.058433
0.41477
0.50338
0.3964
0.48287
0.126504
0.165454
0.118905
0.156419
0.523497
0.432877
0.515987
0.426123
0.17397
0.133696
0.170859
0.131081
0.233198
0.11304
0.22773
0.108973
0.0696775
0.0269163
0.0676849
0.0256406
0.0430304
0.0430209
0.0400567
0.0400494
0.00612222
0.00612037
0.0057125
0.0057112
0.113031
0.233203
0.108966
0.227736
0.026912
0.069678
0.0256374
0.0676857
0.432908
0.523558
0.426151
0.516036
0.133707
0.173992
0.13109
0.170876
0.529455
0.43822
0.527541
0.436512
0.176325
0.135608
0.1756
0.13504
0.237515
0.116195
0.236153
0.115215
0.0711494
0.0278091
0.0707098
0.0275554
0.0452052
0.0451937
0.0445703
0.0445617
0.00640342
0.00640098
0.006328
0.00632615
0.116183
0.237519
0.115207
0.236161
0.0278032
0.0711488
0.0275515
0.0707111
0.438253
0.529519
0.436546
0.527601
0.13562
0.176349
0.135052
0.175622
0.529659
0.438352
0.529939
0.438619
0.176391
0.135581
0.17648
0.135693
0.237735
0.116392
0.23787
0.116462
0.0711902
0.0278172
0.0712428
0.0278553
0.0452619
0.045248
0.0453387
0.0453267
0.00639445
0.00639134
0.00641261
0.00640999
0.116376
0.23774
0.116449
0.237875
0.0278087
0.0711859
0.0278486
0.0712409
0.438436
0.529766
0.438659
0.529994
0.13559
0.176413
0.135703
0.1765
0.527512
0.43642
0.528778
0.437553
0.175598
0.13482
0.176068
0.135253
0.236489
0.115587
0.237237
0.116076
0.0707184
0.0275177
0.0709919
0.0276852
0.0446118
0.044598
0.044985
0.0449711
0.00628169
0.00627908
0.00634145
0.00633845
0.115567
0.236502
0.116058
0.237246
0.0275086
0.070709
0.0276756
0.070984
0.436594
0.5277
0.437679
0.52893
0.134825
0.175619
0.135259
0.176087
0.524645
0.434021
0.525998
0.435125
0.174632
0.133955
0.175112
0.134381
0.234953
0.114604
0.235713
0.115095
0.0701825
0.0271997
0.0704482
0.0273569
0.0439002
0.0438906
0.0442539
0.0442447
0.00617106
0.00616985
0.00622566
0.00622436
0.114585
0.234953
0.115079
0.23573
0.0271941
0.070172
0.0273513
0.0704402
0.434242
0.524959
0.435417
0.526338
0.133946
0.174634
0.134383
0.175126
0.522192
0.431999
0.5234
0.43298
0.173743
0.133186
0.174174
0.133556
0.233551
0.113689
0.234233
0.114142
0.0696936
0.0269048
0.0699344
0.0270515
0.0432376
0.0432279
0.0435684
0.0435609
0.00606831
0.00606722
0.00611958
0.00611893
0.113666
0.233534
0.114124
0.234228
0.0268993
0.069679
0.0270472
0.0699224
0.432127
0.52242
0.433146
0.523641
0.133159
0.173722
0.133539
0.174165
0.520075
0.430233
0.521155
0.431152
0.172912
0.132461
0.173329
0.132824
0.23224
0.112806
0.232901
0.113251
0.0692185
0.026615
0.0694571
0.0267611
0.0425924
0.0425859
0.0429189
0.0429126
0.00596776
0.00596691
0.00601852
0.00601794
0.112802
0.232256
0.11324
0.232894
0.026613
0.0692198
0.0267585
0.0694509
0.430234
0.520098
0.431152
0.521228
0.13247
0.172925
0.132808
0.173311
0.517624
0.42825
0.5188
0.429183
0.17205
0.131717
0.172477
0.132084
0.230913
0.111916
0.231571
0.112365
0.0687352
0.0263211
0.0689788
0.0264699
0.0419425
0.0419388
0.042272
0.042269
0.00586672
0.00586642
0.00591784
0.00591754
0.11192
0.23095
0.112368
0.231602
0.026322
0.0687448
0.0264701
0.068985
0.428404
0.517825
0.429269
0.518886
0.131745
0.172091
0.132104
0.172507
0.515267
0.426378
0.516407
0.427279
0.171185
0.130972
0.171618
0.131343
0.229594
0.111023
0.230258
0.111474
0.0682468
0.026023
0.0684914
0.0261731
0.0412889
0.0412862
0.0416198
0.0416191
0.00576529
0.00576549
0.00581644
0.00581698
0.111032
0.229658
0.111485
0.230319
0.0260252
0.0682607
0.0261766
0.0685067
0.426504
0.515451
0.427441
0.516642
0.131021
0.171248
0.131389
0.171672
0.512732
0.424355
0.514024
0.425368
0.170298
0.13022
0.17074
0.130594
0.228251
0.110126
0.228925
0.110578
0.0677601
0.025725
0.0680041
0.0258752
0.0406336
0.0406279
0.0409651
0.0409637
0.00566418
0.00566338
0.00571516
0.00571539
0.110129
0.228308
0.110589
0.228995
0.0257238
0.0677697
0.0258772
0.0680175
0.424505
0.512944
0.425533
0.514231
0.130266
0.170373
0.130643
0.17081
0.510188
0.422426
0.511416
0.423339
0.169402
0.12946
0.169844
0.129834
0.226919
0.109218
0.227582
0.109678
0.0672617
0.0254215
0.0675132
0.0255751
0.0399727
0.0399604
0.0403079
0.0403009
0.0055629
0.00556044
0.00561404
0.00561281
0.10921
0.226937
0.109677
0.227614
0.0254149
0.0672662
0.0255725
0.0675208
0.422454
0.510273
0.423419
0.511548
0.129492
0.169455
0.129868
0.169902
0.507819
0.420597
0.509005
0.421526
0.168508
0.128697
0.168956
0.12908
0.22557
0.108292
0.226252
0.108761
0.0667528
0.0251113
0.0670097
0.0252684
0.0393033
0.0392864
0.0396427
0.0396298
0.00546066
0.00545759
0.0055124
0.0055098
0.108274
0.225569
0.108753
0.226272
0.0251022
0.0667514
0.0252608
0.0670127
0.420541
0.507798
0.421512
0.50903
0.128712
0.168534
0.12911
0.169003
0.504954
0.418415
0.506395
0.419478
0.167544
0.127887
0.168028
0.12829
0.224147
0.107338
0.224862
0.107822
0.0662275
0.0247927
0.066493
0.0249539
0.0386214
0.0386016
0.0389679
0.0389516
0.00535675
0.00535356
0.00540932
0.00540666
0.107309
0.22413
0.107802
0.224857
0.0247822
0.0662196
0.0249459
0.0664902
0.418396
0.504945
0.419397
0.506312
0.127891
0.167552
0.128301
0.16804
0.50222
0.416346
0.503593
0.417406
0.166554
0.127049
0.167056
0.127476
0.222681
0.106347
0.223431
0.106852
0.0656785
0.0244622
0.0659581
0.0246305
0.0379198
0.0378968
0.0382768
0.0382572
0.00525036
0.00524669
0.00530435
0.00530123
0.106306
0.222638
0.10682
0.223403
0.0244473
0.0656588
0.0246186
0.0659452
0.41624
0.50212
0.417355
0.503578
0.127031
0.166544
0.127469
0.167053
0.499043
0.413959
0.500606
0.415105
0.165479
0.126142
0.166018
0.126595
0.22113
0.105313
0.22191
0.105837
0.0650973
0.024117
0.0653907
0.0242917
0.037199
0.0371759
0.0375645
0.037543
0.00514147
0.00513812
0.00519646
0.00519324
0.105266
0.221072
0.105795
0.221853
0.0241019
0.0650729
0.0242773
0.0653681
0.413981
0.499074
0.415046
0.500519
0.126115
0.165456
0.126563
0.165989
0.495904
0.411663
0.497456
0.412783
0.164386
0.12522
0.164931
0.12568
0.219559
0.104256
0.220349
0.10479
0.0645015
0.0237655
0.0648013
0.0239426
0.0364698
0.0364477
0.0368381
0.0368174
0.00503199
0.0050288
0.0050871
0.00508424
0.10421
0.219485
0.104745
0.220283
0.0237506
0.0644758
0.0239288
0.0647761
0.411627
0.495909
0.412788
0.497494
0.12518
0.164347
0.125642
0.164897
0.49279
0.409396
0.494311
0.410495
0.163263
0.12428
0.163816
0.124739
0.217965
0.103188
0.218753
0.103725
0.0638986
0.0234114
0.0642001
0.0235894
0.0357406
0.0357199
0.0361079
0.0360886
0.00492274
0.00491959
0.00497766
0.00497478
0.103148
0.217914
0.103688
0.218712
0.0233972
0.0638764
0.0235757
0.0641789
0.409373
0.492801
0.4105
0.494346
0.124258
0.163252
0.124724
0.163802
0.489542
0.407032
0.491183
0.408217
0.162126
0.123326
0.1627
0.123807
0.216357
0.102111
0.217171
0.102656
0.0632874
0.0230542
0.0635957
0.0232343
0.0350117
0.0349922
0.0353798
0.0353615
0.00481354
0.00481071
0.00486851
0.00486585
0.102071
0.216306
0.102617
0.217113
0.023041
0.0632635
0.0232215
0.0635728
0.407056
0.489577
0.408174
0.491144
0.123297
0.162103
0.123773
0.162672
0.486128
0.404601
0.487804
0.405781
0.160934
0.12233
0.161528
0.122825
0.214692
0.101003
0.21553
0.101565
0.0626568
0.0226878
0.0629748
0.0228735
0.0342699
0.0342535
0.0346465
0.0346303
0.00470268
0.00470033
0.00475881
0.00475654
0.100971
0.214654
0.101531
0.215492
0.0226776
0.0626406
0.0228625
0.062955
0.404635
0.486217
0.405843
0.487901
0.122316
0.160928
0.122805
0.161515
0.482546
0.40202
0.484351
0.403319
0.159673
0.121272
0.160316
0.121812
0.21292
0.0998291
0.213827
0.100431
0.0619864
0.0222983
0.0623302
0.022498
0.0334898
0.0334765
0.0338894
0.0338767
0.00458652
0.00458457
0.00464581
0.00464402
0.0998085
0.212899
0.100408
0.213799
0.0222917
0.0619806
0.0224908
0.0623205
0.402011
0.482575
0.403327
0.484404
0.121271
0.159682
0.121804
0.160314
0.47852
0.399075
0.480568
0.400567
0.15827
0.120092
0.158987
0.120693
0.210955
0.0985411
0.211965
0.0992039
0.0612433
0.0218713
0.061625
0.0220906
0.0326465
0.032634
0.0330794
0.0330687
0.00446224
0.00446039
0.00452569
0.00452413
0.0985271
0.210955
0.0991909
0.21196
0.0218657
0.0612424
0.0220857
0.0616237
0.399099
0.478577
0.400579
0.480604
0.120103
0.158293
0.1207
0.159003
0.474138
0.395857
0.476343
0.397472
0.156739
0.118813
0.157515
0.119461
0.20881
0.0971386
0.209904
0.0978557
0.0604323
0.0214088
0.0608459
0.0216446
0.0317422
0.0317292
0.0322034
0.0321927
0.00433096
0.00432911
0.00439755
0.00439599
0.097124
0.208813
0.0978449
0.209909
0.0214029
0.0604313
0.0216399
0.0608461
0.39589
0.474208
0.397504
0.476404
0.118824
0.156764
0.119473
0.157538
0.469525
0.392459
0.471834
0.394155
0.155121
0.117459
0.155936
0.118141
0.206537
0.0956519
0.207688
0.0964069
0.0595723
0.0209214
0.060008
0.0211683
0.0307976
0.0307845
0.0312761
0.0312649
0.00419569
0.0041939
0.00426389
0.00426236
0.0956361
0.206538
0.0963947
0.207693
0.0209154
0.0595706
0.0211633
0.0600076
0.39249
0.469595
0.394189
0.4719
0.117469
0.155145
0.118152
0.15596
0.464749
0.388934
0.467133
0.390688
0.153442
0.116052
0.154285
0.116758
0.204176
0.0941097
0.205367
0.0948894
0.0586788
0.0204183
0.0591297
0.0206721
0.0298323
0.0298192
0.030319
0.0303078
0.00405888
0.00405716
0.00412759
0.00412612
0.0940935
0.204176
0.0948764
0.205371
0.0204123
0.058677
0.020667
0.0591289
0.388964
0.464818
0.39072
0.467198
0.116062
0.153466
0.116768
0.154308
0.459857
0.385319
0.462294
0.387113
0.151721
0.114608
0.152583
0.11533
0.201756
0.0925317
0.202974
0.0933273
0.0577623
0.0199054
0.0582236
0.0201634
0.0288594
0.0288464
0.0293485
0.0293373
0.00392214
0.00392049
0.00399063
0.00398922
0.0925153
0.201755
0.093314
0.202977
0.0198995
0.0577604
0.0201584
0.0582227
0.385348
0.459925
0.387145
0.462357
0.114617
0.151745
0.115341
0.152606
0.454885
0.381642
0.457358
0.383464
0.149971
0.113139
0.150846
0.113873
0.199297
0.0909316
0.200532
0.0917366
0.0568301
0.0193873
0.0572984
0.0196474
0.0278887
0.0278758
0.0283755
0.0283644
0.00378667
0.00378508
0.00385438
0.00385302
0.0909149
0.199296
0.0917231
0.200534
0.0193814
0.0568281
0.0196424
0.0572974
0.38167
0.454953
0.383495
0.457421
0.113148
0.149995
0.113883
0.150869
0.449866
0.377923
0.452359
0.379764
0.148203
0.111655
0.149086
0.112395
0.196814
0.0893204
0.198059
0.0901296
0.0558884
0.0188677
0.0563607
0.0191281
0.0269281
0.0269152
0.0274088
0.0273977
0.00365341
0.00365188
0.00371989
0.00371857
0.0893036
0.196813
0.0901158
0.198061
0.0188618
0.0558863
0.0191231
0.0563596
0.377951
0.449933
0.379794
0.452421
0.111664
0.148227
0.112405
0.149108
0.444826
0.374183
0.447326
0.376032
0.146429
0.110165
0.147314
0.110907
0.194323
0.0877082
0.19557
0.0885166
0.054943
0.0183502
0.0554164
0.0186091
0.0259842
0.0259714
0.0264556
0.0264446
0.00352316
0.00352169
0.00358804
0.00358676
0.0876912
0.194321
0.0885027
0.195572
0.0183443
0.0549407
0.0186041
0.0554152
0.37421
0.444893
0.376062
0.447388
0.110174
0.146452
0.110917
0.147336
0.439788
0.370434
0.442285
0.372287
0.144656
0.108676
0.145539
0.109417
0.191833
0.0861039
0.193079
0.0869074
0.0539988
0.0178378
0.0544711
0.0180937
0.0250631
0.0250504
0.0255224
0.0255114
0.00339656
0.00339514
0.00345953
0.0034583
0.0860867
0.19183
0.0868932
0.19308
0.017832
0.0539965
0.0180887
0.0544697
0.370461
0.439854
0.372316
0.442347
0.108685
0.14468
0.109427
0.145561
0.434748
0.36667
0.43725
0.368533
0.142887
0.107188
0.143769
0.10793
0.189344
0.084511
0.190591
0.0853089
0.0530587
0.0173331
0.0535289
0.017585
0.0241689
0.0241563
0.0246143
0.0246034
0.00327412
0.00327276
0.00333494
0.00333376
0.0844936
0.189342
0.0852945
0.190592
0.0173273
0.0530562
0.01758
0.0535273
0.366697
0.434814
0.368562
0.437311
0.107197
0.14291
0.107939
0.143791
0.429615
0.362827
0.432185
0.364746
0.141096
0.105686
0.141995
0.106438
0.186815
0.0829135
0.188092
0.0837182
0.0521163
0.0168357
0.0525895
0.0170843
0.0233003
0.0232878
0.0237338
0.0237229
0.00315602
0.00315471
0.00321468
0.00321354
0.082896
0.186812
0.0837035
0.188093
0.01683
0.0521137
0.0170793
0.0525878
0.362853
0.429679
0.364774
0.432245
0.105694
0.141119
0.106448
0.142017
0.424047
0.358626
0.426902
0.36078
0.139179
0.104096
0.140163
0.104907
0.184064
0.0812233
0.18549
0.0820937
0.0511326
0.016334
0.0516352
0.0165876
0.0224329
0.0224206
0.0228715
0.0228608
0.00304114
0.00303988
0.00309848
0.00309739
0.0812058
0.184061
0.0820789
0.18549
0.0163283
0.0511299
0.0165826
0.0516334
0.358651
0.42411
0.360808
0.426962
0.104104
0.139202
0.104916
0.140185
0.4171
0.353259
0.420823
0.356152
0.136811
0.102194
0.138084
0.103205
0.18053
0.0791313
0.182459
0.0802653
0.0499657
0.0157752
0.0505889
0.0160687
0.0214625
0.0214506
0.0219748
0.0219642
0.00292339
0.0029222
0.00298352
0.00298247
0.0791141
0.180527
0.0802505
0.182458
0.0157697
0.049963
0.0160638
0.0505871
0.353283
0.417162
0.356179
0.420881
0.102203
0.136833
0.103214
0.138105
0.406525
0.344368
0.412453
0.349507
0.133187
0.0993829
0.13523
0.100965
0.174604
0.0757503
0.178045
0.0776962
0.048185
0.0149825
0.0491997
0.015428
0.0200598
0.0200484
0.0208512
0.0208411
0.00278056
0.00277948
0.0028577
0.00285672
0.0757334
0.174601
0.0776817
0.178044
0.0149772
0.0481824
0.0154233
0.0491978
0.344392
0.406587
0.349534
0.412511
0.0993911
0.133209
0.100973
0.135251
0.387837
0.321922
0.398653
0.336394
0.126322
0.0928686
0.130417
0.0970525
0.161734
0.0692604
0.169514
0.0730156
0.0445425
0.0135182
0.0467358
0.0143727
0.0175805
0.0175685
0.0189914
0.0189815
0.00255859
0.0025576
0.00268402
0.00268312
0.0692387
0.161726
0.0730002
0.169513
0.0135125
0.0445388
0.014368
0.0467337
0.321944
0.387907
0.33642
0.398713
0.0928762
0.126346
0.0970613
0.130439
0.109928
0.102787
0.0155805
0.0182724
0.0967777
0.0911058
0.0143442
0.0164111
0.018121
0.00354331
0.00397311
0.00308898
0.0148343
0.00331836
0.00386254
0.00309734
0.00252259
0.00252261
0.00327846
0.00327845
0.0025568
0.00255684
0.00328204
0.00328202
0.00354304
0.0181177
0.00308897
0.00397299
0.00331822
0.0148321
0.00309734
0.00386247
0.102774
0.109914
0.0182706
0.0155786
0.0910966
0.0967677
0.0164099
0.0143429
0.45739
0.367963
0.309356
0.249058
0.413294
0.331917
0.277164
0.223932
0.168263
0.0515117
0.0818461
0.0138611
0.14464
0.039621
0.0679128
0.0105117
0.00732021
0.00731821
0.00278245
0.00278227
0.00529433
0.0052934
0.00260428
0.00260416
0.0515027
0.168254
0.0138582
0.081837
0.0396156
0.144634
0.0105101
0.0679065
0.36796
0.457397
0.249046
0.309341
0.331914
0.413296
0.223923
0.277151
0.628988
0.515603
0.559444
0.454615
0.567422
0.463638
0.505528
0.409625
0.284464
0.137228
0.235371
0.100062
0.246428
0.112893
0.203661
0.0811616
0.0501363
0.0501243
0.0236288
0.0236231
0.0360549
0.0360476
0.0162201
0.0162175
0.137213
0.28446
0.100051
0.235366
0.112884
0.246427
0.0811559
0.203659
0.515622
0.629037
0.454623
0.559469
0.463654
0.567456
0.409632
0.505543
0.706164
0.58488
0.67552
0.557185
0.634881
0.523982
0.608276
0.500019
0.341941
0.182628
0.318784
0.164089
0.295705
0.150818
0.275992
0.13548
0.0889801
0.0889657
0.0725308
0.0725193
0.0660101
0.0659999
0.0532852
0.0532782
0.182611
0.341944
0.164076
0.318787
0.150808
0.295711
0.135473
0.275997
0.584922
0.706252
0.557217
0.675583
0.524015
0.634943
0.500045
0.608319
0.737231
0.613221
0.725509
0.602493
0.661449
0.548103
0.651483
0.539032
0.365927
0.202088
0.356837
0.194708
0.315746
0.166549
0.308213
0.160644
0.106594
0.106579
0.0999282
0.099916
0.0794571
0.0794464
0.0744157
0.0744074
0.202072
0.365937
0.194696
0.356849
0.16654
0.315757
0.160638
0.308226
0.613279
0.737347
0.602545
0.725604
0.548149
0.661532
0.539075
0.65155
0.746849
0.62209
0.743706
0.619177
0.669474
0.555434
0.666872
0.553053
0.373536
0.208215
0.371039
0.206225
0.321898
0.171313
0.319904
0.169789
0.111946
0.111929
0.110258
0.110245
0.0833564
0.0833439
0.0821584
0.0821492
0.208197
0.373547
0.206213
0.371054
0.171301
0.32191
0.169783
0.319921
0.622156
0.746975
0.619241
0.743818
0.555493
0.669562
0.553105
0.666949
0.747191
0.622492
0.747674
0.622877
0.669598
0.555594
0.670072
0.555985
0.374192
0.208815
0.374339
0.208878
0.322331
0.171705
0.322481
0.171776
0.112384
0.112367
0.11246
0.112444
0.0835928
0.0835788
0.0836767
0.0836644
0.2088
0.374232
0.208863
0.374366
0.171693
0.322373
0.171767
0.322508
0.622624
0.747406
0.622986
0.747841
0.555806
0.669848
0.556107
0.670208
0.743737
0.619537
0.745758
0.621279
0.666571
0.553004
0.668303
0.554496
0.372305
0.207518
0.373476
0.208346
0.320692
0.170605
0.321686
0.171287
0.111219
0.111206
0.111948
0.111933
0.08263
0.0826174
0.0832094
0.0831966
0.207523
0.372412
0.208342
0.37355
0.170602
0.320787
0.171281
0.321759
0.619825
0.744097
0.62148
0.746037
0.553431
0.667102
0.554832
0.668696
0.739268
0.615816
0.741429
0.617587
0.662736
0.549837
0.66458
0.551325
0.36984
0.205802
0.371059
0.206662
0.31862
0.169208
0.319638
0.169903
0.109763
0.109756
0.110494
0.110487
0.0814947
0.0814866
0.0820596
0.0820523
0.205831
0.370023
0.206688
0.371222
0.169216
0.31874
0.169913
0.319764
0.616459
0.740095
0.618086
0.742003
0.550276
0.663357
0.551803
0.66519
0.735878
0.613021
0.73743
0.614319
0.659769
0.547375
0.661194
0.548575
0.367703
0.204231
0.368752
0.205011
0.316767
0.167917
0.317673
0.168554
0.108408
0.108397
0.109086
0.10908
0.080438
0.0804292
0.0809637
0.0809578
0.204234
0.367766
0.205036
0.368891
0.167917
0.316828
0.168563
0.317769
0.613213
0.736232
0.614781
0.738103
0.547554
0.660048
0.548826
0.661576
0.732415
0.610098
0.734166
0.611555
0.656862
0.544938
0.658295
0.54614
0.365612
0.202731
0.366653
0.203487
0.31501
0.166685
0.315886
0.167302
0.107112
0.107101
0.107769
0.10776
0.0794209
0.0794144
0.0799334
0.0799286
0.20274
0.365702
0.203498
0.366733
0.166693
0.315057
0.167312
0.315934
0.610331
0.732718
0.611699
0.734382
0.544942
0.656867
0.546211
0.65844
0.729008
0.607254
0.730725
0.608697
0.653695
0.542368
0.655226
0.543585
0.363591
0.201258
0.36462
0.202006
0.31326
0.165463
0.314127
0.166077
0.105829
0.105817
0.106481
0.106472
0.0784065
0.0784007
0.0789191
0.0789153
0.20126
0.363659
0.202013
0.364686
0.165472
0.313339
0.166088
0.314197
0.607462
0.729284
0.60891
0.731017
0.54261
0.654061
0.543805
0.655455
0.725305
0.604277
0.727031
0.60564
0.650686
0.539902
0.652198
0.541145
0.361556
0.199796
0.362556
0.200535
0.31153
0.164246
0.312395
0.164859
0.104553
0.104539
0.105202
0.105192
0.0773925
0.0773865
0.0779053
0.077902
0.199796
0.361653
0.200544
0.362668
0.164256
0.311612
0.164874
0.312477
0.604594
0.725769
0.606033
0.727529
0.540082
0.650879
0.541264
0.652389
0.721866
0.601522
0.72357
0.602875
0.647444
0.537333
0.649004
0.53855
0.359543
0.198318
0.360564
0.199071
0.309782
0.163019
0.310648
0.163635
0.103271
0.103257
0.103924
0.103914
0.0763745
0.0763656
0.0768891
0.0768853
0.198314
0.359591
0.199077
0.36065
0.163022
0.309865
0.163652
0.310757
0.601746
0.722226
0.603165
0.723965
0.537668
0.647896
0.538913
0.649414
0.718408
0.598719
0.720198
0.600174
0.644447
0.535022
0.645843
0.536097
0.357497
0.196831
0.358546
0.19759
0.30806
0.161785
0.308926
0.16241
0.101981
0.10196
0.102639
0.102624
0.0753491
0.075332
0.0758688
0.075858
0.196807
0.357489
0.197581
0.358561
0.161766
0.308058
0.162404
0.308968
0.598766
0.718499
0.600231
0.720338
0.535001
0.644515
0.53631
0.646191
0.714625
0.59572
0.716549
0.597228
0.641242
0.532453
0.642899
0.533766
0.355408
0.195324
0.356471
0.196093
0.306248
0.160521
0.307164
0.16116
0.10068
0.10065
0.101344
0.10132
0.0743104
0.0742869
0.0748364
0.0748186
0.195273
0.355365
0.196058
0.356438
0.16049
0.306244
0.161141
0.307164
0.595831
0.714799
0.597261
0.716592
0.532501
0.641318
0.533733
0.64286
0.71081
0.592715
0.712701
0.594217
0.637644
0.529641
0.63947
0.531051
0.353236
0.193769
0.354339
0.194563
0.304371
0.159219
0.305315
0.159879
0.0993556
0.0993228
0.100032
0.100003
0.0732514
0.0732246
0.073789
0.0737659
0.193709
0.353171
0.194514
0.3543
0.159175
0.304342
0.159845
0.3053
0.592708
0.710886
0.594294
0.712867
0.529741
0.637759
0.531057
0.639475
0.706623
0.58939
0.708723
0.591047
0.633988
0.526837
0.635757
0.528205
0.350976
0.192169
0.352122
0.192986
0.302404
0.157867
0.303396
0.158552
0.0980039
0.0979705
0.0986942
0.0986633
0.0721651
0.0721372
0.0727164
0.0726915
0.1921
0.350879
0.192927
0.35205
0.157819
0.30237
0.158512
0.303378
0.589332
0.706591
0.591019
0.708741
0.526848
0.634112
0.528338
0.635969
0.702031
0.585848
0.704324
0.587584
0.630061
0.523821
0.632021
0.525297
0.348617
0.190518
0.349814
0.19136
0.300387
0.156478
0.301401
0.157181
0.096625
0.0965953
0.0973282
0.0972983
0.0710542
0.0710266
0.0716168
0.0715912
0.190459
0.348543
0.191298
0.349724
0.156424
0.300315
0.157133
0.301346
0.585914
0.70221
0.587605
0.704359
0.523688
0.629927
0.525165
0.631921
0.69771
0.582532
0.699836
0.58418
0.626132
0.52087
0.628065
0.522314
0.346233
0.188835
0.347437
0.189691
0.298332
0.15506
0.299362
0.155776
0.09523
0.0952086
0.0959392
0.095916
0.0699295
0.0699051
0.0704972
0.0704736
0.188803
0.346203
0.18965
0.347386
0.155011
0.298252
0.155727
0.29929
0.582512
0.697703
0.584112
0.699847
0.520731
0.626021
0.522203
0.627959
0.693057
0.578956
0.695425
0.580746
0.622206
0.517905
0.624136
0.519362
0.343799
0.187133
0.34503
0.187996
0.296252
0.153626
0.297291
0.154347
0.0938343
0.0938221
0.0945414
0.0945274
0.0688039
0.0687833
0.0693703
0.0693506
0.187131
0.34383
0.187985
0.345036
0.153587
0.296179
0.154308
0.29722
0.579189
0.69334
0.580857
0.695528
0.517764
0.622044
0.519206
0.623977
0.688505
0.575539
0.690709
0.577205
0.617967
0.514742
0.62005
0.516272
0.341363
0.185434
0.342588
0.186294
0.294133
0.152184
0.295192
0.152911
0.0924459
0.0924364
0.0931501
0.0931427
0.0676804
0.0676615
0.068247
0.06823
0.185439
0.341419
0.186303
0.342639
0.152147
0.294069
0.152878
0.295136
0.575807
0.688868
0.577482
0.69107
0.514704
0.617952
0.516227
0.619987
0.683709
0.571943
0.686072
0.573688
0.613664
0.511595
0.615757
0.513109
0.338878
0.183705
0.340138
0.184588
0.291966
0.150708
0.293055
0.151456
0.0910367
0.0910246
0.091757
0.0917491
0.0665365
0.0665188
0.0671172
0.0671014
0.183702
0.338922
0.184594
0.340199
0.150672
0.2919
0.151423
0.292992
0.572189
0.684087
0.574
0.68648
0.511542
0.613652
0.513072
0.615741
0.678717
0.568172
0.681228
0.570068
0.609166
0.508258
0.611439
0.509939
0.336235
0.181872
0.337589
0.182817
0.289659
0.149144
0.290835
0.149945
0.0895478
0.089532
0.0903158
0.0903043
0.0653293
0.0653134
0.0659478
0.0659334
0.18186
0.336258
0.182813
0.33763
0.149118
0.289626
0.149917
0.290785
0.568288
0.678939
0.570259
0.68153
0.508234
0.609176
0.509885
0.611408
0.673188
0.563957
0.676007
0.566098
0.604142
0.504508
0.606687
0.506405
0.333334
0.179867
0.33483
0.180904
0.287115
0.147431
0.28842
0.148312
0.0879257
0.0879066
0.0887646
0.0887497
0.0640175
0.0640023
0.0646916
0.0646789
0.179849
0.333347
0.180894
0.334853
0.147416
0.287118
0.148297
0.288415
0.564028
0.673337
0.566186
0.676167
0.504544
0.604223
0.506422
0.606731
0.667091
0.559325
0.670174
0.561662
0.598654
0.500376
0.60141
0.502446
0.330148
0.177675
0.331782
0.178802
0.284328
0.145562
0.285747
0.146517
0.0861622
0.0861404
0.0870692
0.0870512
0.0625973
0.0625808
0.0633232
0.0633098
0.177651
0.330157
0.178787
0.331799
0.145545
0.284336
0.146507
0.28576
0.55939
0.667232
0.561733
0.670307
0.500425
0.598753
0.502496
0.601496
0.660621
0.554394
0.663869
0.556865
0.592861
0.496004
0.595754
0.498181
0.326752
0.175337
0.32848
0.176531
0.281367
0.143574
0.282865
0.144583
0.0842916
0.0842683
0.0852465
0.0852263
0.0610981
0.0610806
0.0618589
0.0618443
0.175311
0.326756
0.176511
0.328493
0.143555
0.281373
0.14457
0.282877
0.554455
0.660758
0.556932
0.663997
0.496052
0.59296
0.498233
0.595845
0.653904
0.549262
0.657265
0.551825
0.586856
0.491466
0.589847
0.49372
0.323212
0.172903
0.325005
0.17414
0.278287
0.141507
0.279839
0.142551
0.0823534
0.0823293
0.0833375
0.0833163
0.0595514
0.0595336
0.0603324
0.0603172
0.172874
0.323214
0.174117
0.325014
0.141487
0.278291
0.142537
0.279849
0.549321
0.654038
0.551888
0.657389
0.491512
0.586953
0.49377
0.589936
0.64701
0.543989
0.650451
0.546617
0.580697
0.48681
0.583758
0.489117
0.319572
0.170404
0.321411
0.17167
0.275124
0.139389
0.276713
0.140456
0.0803762
0.0803518
0.0813767
0.0813549
0.0579795
0.0579615
0.0587708
0.0587553
0.170375
0.319573
0.171646
0.321418
0.139369
0.275127
0.140441
0.276722
0.544046
0.647142
0.546677
0.650574
0.486855
0.580794
0.489166
0.583846
0.639992
0.538615
0.64349
0.541289
0.574432
0.48207
0.577541
0.484416
0.315866
0.167866
0.317735
0.169148
0.271906
0.137238
0.27352
0.138319
0.0783799
0.0783551
0.0793875
0.0793654
0.056398
0.0563799
0.0571923
0.0571766
0.167836
0.315866
0.169124
0.317741
0.137218
0.271909
0.138304
0.273529
0.538671
0.640123
0.541348
0.643611
0.482114
0.574528
0.484463
0.577629
0.632894
0.533172
0.636427
0.535876
0.5681
0.477274
0.571238
0.479645
0.312114
0.165304
0.314003
0.166596
0.268653
0.13507
0.270283
0.136158
0.0763799
0.0763547
0.0773873
0.0773648
0.0548194
0.054801
0.0556106
0.0555948
0.165274
0.312114
0.166571
0.314008
0.135049
0.268655
0.136142
0.27029
0.533226
0.633024
0.535935
0.636547
0.477317
0.568195
0.479691
0.571325
0.625751
0.527686
0.629302
0.530408
0.561735
0.472446
0.564886
0.47483
0.308339
0.162734
0.310237
0.164028
0.265383
0.132898
0.267019
0.133986
0.0743895
0.074364
0.0753902
0.0753674
0.0532544
0.0532359
0.0540374
0.0540214
0.162703
0.308337
0.164002
0.310242
0.132876
0.265384
0.13397
0.267026
0.527739
0.62588
0.530466
0.629422
0.472488
0.561829
0.474876
0.564972
0.618591
0.522173
0.622149
0.524908
0.555362
0.467603
0.558515
0.469994
0.304551
0.160166
0.306455
0.161458
0.262108
0.130731
0.263746
0.131816
0.07242
0.0723942
0.0734089
0.0733857
0.0517125
0.0516938
0.0524828
0.0524666
0.160135
0.304549
0.161432
0.306459
0.130709
0.262109
0.131799
0.263752
0.522225
0.618718
0.524964
0.622268
0.467644
0.555456
0.470039
0.558601
0.611389
0.516608
0.614977
0.519377
0.548966
0.462728
0.552137
0.465141
0.300735
0.157597
0.302658
0.158892
0.258819
0.128569
0.260467
0.129653
0.0704763
0.0704502
0.0714522
0.0714287
0.0501993
0.0501805
0.0509548
0.0509385
0.157566
0.300732
0.158865
0.302661
0.128547
0.258819
0.129635
0.260473
0.516659
0.611515
0.519432
0.615094
0.462769
0.549059
0.465185
0.552222
0.603982
0.510842
0.607709
0.513744
0.542421
0.457696
0.545695
0.460214
0.296784
0.154969
0.298799
0.156307
0.255438
0.126376
0.25715
0.127485
0.0685364
0.0685101
0.0695163
0.0694925
0.048705
0.0486861
0.0494542
0.0494377
0.154937
0.296781
0.15628
0.298801
0.126354
0.255437
0.127467
0.257154
0.510891
0.604107
0.513798
0.607825
0.457736
0.542513
0.460257
0.54578
0.5958
0.504377
0.600027
0.507726
0.535267
0.45212
0.538939
0.454987
0.292318
0.152045
0.294667
0.15358
0.251678
0.123986
0.253638
0.125228
0.0664812
0.0664548
0.0675447
0.0675207
0.04716
0.047141
0.0479504
0.0479338
0.152013
0.292314
0.153552
0.294668
0.123963
0.251676
0.12521
0.253642
0.504425
0.595922
0.507779
0.600141
0.452159
0.535357
0.455029
0.539022
0.585321
0.495829
0.590979
0.500485
0.526219
0.44486
0.531079
0.448792
0.286252
0.148123
0.289607
0.150291
0.246672
0.120867
0.249424
0.122578
0.0639051
0.063879
0.0653089
0.065285
0.0453033
0.0452847
0.0463027
0.0462862
0.148091
0.286247
0.150264
0.289608
0.120845
0.24667
0.122559
0.249427
0.495876
0.58544
0.500536
0.591091
0.444897
0.526307
0.448833
0.531161
0.568968
0.481351
0.578191
0.489739
0.512183
0.432606
0.520086
0.439704
0.275793
0.14151
0.281866
0.145316
0.238074
0.115646
0.24307
0.118654
0.0598045
0.0597785
0.0621398
0.0621162
0.0424204
0.0424021
0.0440603
0.0440441
0.141478
0.275788
0.145289
0.281866
0.115624
0.238072
0.118636
0.243073
0.481397
0.569086
0.489788
0.578301
0.432643
0.512271
0.439744
0.520167
0.539176
0.446534
0.55653
0.468589
0.486429
0.402407
0.501474
0.42167
0.25445
0.129668
0.267063
0.136345
0.220028
0.106001
0.23078
0.111491
0.0529697
0.0529376
0.056742
0.056717
0.0374647
0.0374427
0.0402306
0.0402139
0.129625
0.254437
0.136315
0.267061
0.10597
0.220019
0.11147
0.230782
0.446577
0.539308
0.468638
0.556644
0.402441
0.486529
0.42171
0.501559
0.117437
0.108592
0.0161705
0.0187372
0.115381
0.106553
0.016035
0.018366
0.0198279
0.00368278
0.00401212
0.00309643
0.019196
0.00363435
0.00399018
0.00309963
0.00252661
0.00252661
0.00328636
0.00328635
0.00253015
0.00253016
0.00329093
0.00329091
0.00368236
0.019823
0.00309642
0.00401194
0.00363402
0.019192
0.00309962