/*--------------------------------*- C++ -*----------------------------------*\
  =========                 |
  \\      /  F ield         | OpenFOAM: The Open Source CFD Toolbox
   \\    /   O peration     | Website:  https://openfoam.org
    \\  /    A nd           | Version:  9
     \\/     M anipulation  |
\*---------------------------------------------------------------------------*/
FoamFile
{
    format      ascii;
    class       surfaceScalarField;
    location    "0.8";
    object      phi;
}
// * * * * * * * * * * * * * * * * * * * * * * * * * * * * * * * * * * * * * //

dimensions      [0 3 -1 0 0 0 0];

internalField   nonuniform List<scalar> 
104044
(
9.10877e-07
-0.00014699
3.67769e-06
0.000144059
-1.65754e-06
-9.07334e-05
-8.20016e-06
-3.88176e-07
9.77682e-05
2.46442e-06
1.76632e-07
2.03538e-06
-1.86724e-06
-7.09176e-06
-1.27012e-07
3.65667e-06
6.08759e-08
-0.000142161
0.000145778
-0.000103923
-1.9257e-08
9.58031e-05
2.67921e-07
-1.72564e-07
-1.57893e-08
-0.000112903
-1.62542e-06
0.000112938
1.21848e-06
-0.000118149
-8.76104e-07
1.01074e-08
0.0001189
9.95042e-08
3.75163e-09
-1.77238e-06
4.66996e-07
-1.71487e-06
1.5167e-09
2.54484e-07
-6.51169e-09
-0.000119547
0.000117909
-0.000120291
3.46011e-11
0.000119408
-4.70428e-09
1.79602e-09
-4.42425e-12
-0.000119
-1.07444e-06
0.000119878
2.06083e-07
-0.000119
-1.07445e-06
-1.01174e-08
0.000119878
2.06094e-07
-1.11127e-12
-1.76866e-06
2.78659e-07
-1.76866e-06
-1.51864e-09
2.78663e-07
-4.38803e-12
-0.000120155
0.00011908
-0.000120155
-4.14613e-11
0.00011908
-1.2347e-12
-1.79834e-09
1.57839e-08
-0.000118149
-8.7614e-07
0.000118899
9.95406e-08
-0.000112902
-1.62524e-06
3.88159e-07
0.000112937
1.21825e-06
-3.75304e-09
-1.71489e-06
2.54506e-07
-1.77236e-06
1.26992e-07
4.66948e-07
6.50605e-09
-0.00012029
0.000119407
-0.000119547
1.92677e-08
0.000117909
4.70188e-09
1.72548e-07
-9.10788e-07
-9.07331e-05
-8.19984e-06
9.77677e-05
2.46416e-06
-0.000146991
3.67809e-06
0.00014406
-1.65801e-06
-1.76582e-07
-7.09133e-06
3.65602e-06
2.03452e-06
-1.86606e-06
-6.08353e-08
-0.000103923
9.58029e-05
-0.000142161
0.000145779
-2.67876e-07
2.01455e-06
-0.000141044
-3.34902e-06
0.000137428
4.95085e-06
-0.000104468
1.50032e-06
-5.76088e-07
0.000109273
-3.71442e-06
1.72507e-06
-1.69711e-06
2.9863e-06
-3.34818e-06
-5.82868e-07
-1.04383e-06
-8.27382e-07
-0.000144458
0.000141936
-9.18691e-05
4.85482e-07
9.20565e-05
-3.76666e-07
2.09153e-07
-6.53222e-08
-0.00011337
-4.57943e-06
0.000114285
3.15387e-06
-0.000119277
-1.14854e-06
6.59416e-09
0.000119357
9.9681e-07
-4.62692e-08
-3.59166e-06
2.62245e-06
-7.17018e-07
1.12336e-08
2.82035e-07
-1.06425e-08
-0.000114541
0.000110458
-0.000118682
-2.43254e-08
0.000117547
-1.45489e-08
-5.16791e-09
-8.08275e-12
-0.000120714
-7.98759e-07
0.000121416
1.03625e-07
-0.000120714
-7.98801e-07
-6.61247e-09
0.000121415
1.03665e-07
-6.42072e-12
-9.85585e-07
1.6119e-07
-9.85605e-07
-1.12448e-08
1.61201e-07
-1.29503e-11
-0.00011809
0.000117267
-0.00011809
2.43006e-08
0.000117266
-6.96404e-12
5.15617e-09
6.5304e-08
-0.000119277
-1.14865e-06
0.000119357
9.96929e-07
-0.00011337
-4.57984e-06
5.76078e-07
0.000114284
3.15416e-06
4.62594e-08
-7.16964e-07
2.81941e-07
-3.59135e-06
5.82857e-07
2.62223e-06
1.06288e-08
-0.000118681
0.000117546
-0.000114541
-4.85452e-07
0.000110457
1.45392e-08
-2.09125e-07
-2.01446e-06
-0.000104468
1.4995e-06
0.000109273
-3.71406e-06
-0.000141046
-3.34926e-06
0.00013743
4.951e-06
-1.72496e-06
-3.34818e-06
-1.04379e-06
-1.69634e-06
2.98549e-06
8.27494e-07
-9.18688e-05
9.20554e-05
-0.000144459
0.000141937
3.76735e-07
1.414e-06
-0.000134205
-5.75934e-06
0.000131548
7.00166e-06
-0.000112462
6.77416e-06
-2.58095e-07
0.000114644
-7.28429e-06
1.78537e-06
-4.80511e-06
6.24285e-06
4.80117e-06
-4.28033e-07
-5.77716e-06
-2.19361e-06
-0.000138584
0.000135018
-9.45702e-05
1.17595e-06
9.79748e-05
-1.45309e-06
8.34419e-07
-3.28038e-08
-0.000114949
-2.46118e-06
0.000115373
1.81199e-06
-0.000119227
-1.20587e-06
-1.66687e-08
0.000118989
1.42833e-06
-6.13075e-08
-3.64566e-06
2.61493e-06
-1.33718e-06
-4.88743e-09
1.41045e-06
6.34764e-08
-0.000107631
0.000106283
-0.000116259
-3.05431e-08
0.000115147
1.55083e-08
-3.38278e-08
-1.97774e-11
-0.000121661
-1.60327e-07
0.000121534
2.7042e-07
-0.000121661
-1.60338e-07
1.66172e-08
0.000121534
2.70403e-07
-1.16129e-11
-4.16282e-07
1.66178e-07
-4.16312e-07
4.86235e-09
1.66193e-07
-2.16503e-11
-0.000116817
0.000116626
-0.000116816
3.05063e-08
0.000116625
-1.82099e-11
3.3789e-08
3.27801e-08
-0.000119227
-1.2058e-06
0.000118988
1.42825e-06
-0.000114948
-2.46091e-06
2.58118e-07
0.000115372
1.81167e-06
6.12874e-08
-1.33714e-06
1.41043e-06
-3.64557e-06
4.28045e-07
2.61479e-06
-6.34992e-08
-0.000116258
0.000115146
-0.00010763
-1.17591e-06
0.000106282
-1.55258e-08
-8.34374e-07
-1.41396e-06
-0.000112462
6.77493e-06
0.000114644
-7.28514e-06
-0.000134207
-5.75889e-06
0.00013155
7.00144e-06
-1.78533e-06
4.80154e-06
-5.77764e-06
-4.80485e-06
6.24255e-06
2.19384e-06
-9.45693e-05
9.79745e-05
-0.000138586
0.00013502
1.45324e-06
6.17042e-07
-0.000129404
-6.39725e-06
0.00012763
7.55438e-06
-0.000116174
8.01715e-06
3.39648e-10
0.000117294
-8.52106e-06
9.89575e-07
-6.13734e-06
7.29187e-06
7.61642e-06
-1.07779e-07
-8.04836e-06
-3.40922e-06
-0.000131709
0.000128721
-0.000101351
1.59472e-06
0.000104365
-2.82808e-06
1.4118e-06
1.02198e-07
-0.000115745
-1.13419e-06
0.000116119
6.57353e-07
-0.000118728
-7.88279e-07
-1.80982e-08
0.000118522
1.11477e-06
1.86739e-08
-1.60035e-06
1.10221e-06
-9.52683e-07
-2.61335e-08
1.25788e-06
1.94979e-07
-0.000105969
0.000106235
-0.000114348
-2.31009e-08
0.000113778
1.24865e-07
-2.87779e-08
-2.93997e-11
-0.000121256
-8.47946e-08
0.000120949
3.7346e-07
-0.000121256
-8.48061e-08
1.80425e-08
0.000120949
3.73487e-07
-2.30693e-11
-7.67172e-08
3.28688e-07
-7.67228e-08
2.60596e-08
3.28714e-07
-3.65259e-11
-0.00011652
0.000116412
-0.00011652
2.30417e-08
0.000116412
-2.90387e-11
2.87299e-08
-1.02242e-07
-0.000118728
-7.88389e-07
0.000118522
1.11489e-06
-0.000115744
-1.13437e-06
-3.05363e-10
0.000116119
6.57361e-07
-1.87005e-08
-9.52695e-07
1.25788e-06
-1.60023e-06
1.07809e-07
1.102e-06
-1.95017e-07
-0.000114347
0.000113777
-0.000105969
-1.59474e-06
0.000106234
-1.24897e-07
-1.41176e-06
-6.16999e-07
-0.000116174
8.01743e-06
0.000117295
-8.52164e-06
-0.000129406
-6.39826e-06
0.000127632
7.55537e-06
-9.89527e-07
7.61721e-06
-8.04923e-06
-6.13712e-06
7.29193e-06
3.40959e-06
-0.000101352
0.000104365
-0.000131712
0.000128723
2.82838e-06
7.38362e-09
-0.000126179
-6.42773e-06
0.000124959
7.64016e-06
-0.000118096
7.8744e-06
1.30789e-07
0.000118655
-8.55665e-06
2.82033e-07
-6.38717e-06
7.55615e-06
7.94484e-06
7.01975e-08
-8.53513e-06
-4.17928e-06
-0.000126141
0.000123893
-0.000106805
1.781e-06
0.000108719
-3.80738e-06
1.69742e-06
2.60508e-07
-0.000116491
-7.79631e-07
0.000116854
2.86957e-07
-0.00011839
-5.95843e-07
5.18228e-09
0.000118315
9.26647e-07
1.8405e-07
-8.82362e-07
3.9712e-07
-6.68177e-07
-7.9934e-09
9.91887e-07
3.10994e-07
-0.00010679
0.00010748
-0.000113383
-1.06789e-09
0.000113099
2.60035e-07
-1.31241e-08
-5.02402e-11
-0.000120662
-1.9398e-07
0.000120406
4.55674e-07
-0.000120662
-1.93956e-07
-5.27323e-09
0.000120406
4.55654e-07
-3.8782e-11
-1.30238e-07
4.09455e-07
-1.30227e-07
7.92519e-09
4.09452e-07
-5.71907e-11
-0.000116269
0.000116074
-0.000116269
9.75857e-10
0.000116074
-4.57652e-11
1.305e-08
-2.60558e-07
-0.00011839
-5.95801e-07
0.000118314
9.26618e-07
-0.000116491
-7.79581e-07
-1.30603e-07
0.000116854
2.86705e-07
-1.84093e-07
-6.6816e-07
9.91904e-07
-8.82256e-07
-7.01567e-08
3.96916e-07
-3.11024e-07
-0.000113382
0.000113098
-0.000106789
-1.78096e-06
0.000107479
-2.60081e-07
-1.69743e-06
-7.3639e-09
-0.000118097
7.87505e-06
0.000118656
-8.55742e-06
-0.00012618
-6.42881e-06
0.000124961
7.64129e-06
-2.81997e-07
7.94567e-06
-8.53602e-06
-6.38774e-06
7.55692e-06
4.17979e-06
-0.000106805
0.000108719
-0.000126143
0.000123894
3.80782e-06
-4.01299e-07
-0.000123939
-6.24695e-06
0.000123062
7.52488e-06
-0.00011901
7.45217e-06
1.64588e-07
0.00011922
-8.22725e-06
-2.16567e-07
-6.28574e-06
7.52253e-06
7.58742e-06
1.68344e-07
-8.32746e-06
-4.60516e-06
-0.00012199
0.000120348
-0.000110132
1.8114e-06
0.000111168
-4.38269e-06
1.79116e-06
3.74833e-07
-0.000117183
-7.69289e-07
0.000117457
2.84956e-07
-0.000118278
-4.91108e-07
3.50046e-08
0.00011826
8.49073e-07
3.20958e-07
-7.41349e-07
2.59904e-07
-5.31753e-07
1.97232e-08
8.6987e-07
3.66535e-07
-0.000108191
0.000108867
-0.000112893
2.66541e-08
0.000112742
3.38568e-07
1.24917e-08
-6.15486e-11
-0.000120181
-2.89216e-07
0.000119973
5.32254e-07
-0.000120181
-2.8915e-07
-3.51339e-08
0.000119973
5.32203e-07
-6.15769e-11
-2.49117e-07
4.93745e-07
-2.49087e-07
-1.98384e-08
4.93699e-07
-7.16605e-11
-0.000115838
0.000115575
-0.000115837
-2.67931e-08
0.000115575
-6.82386e-11
-1.26099e-08
-3.74956e-07
-0.000118278
-4.90856e-07
0.000118259
8.48954e-07
-0.000117182
-7.6891e-07
-1.64227e-07
0.000117456
2.84507e-07
-3.21031e-07
-5.31611e-07
8.6974e-07
-7.41024e-07
-1.68111e-07
2.59427e-07
-3.66607e-07
-0.000112893
0.000112742
-0.000108191
-1.81123e-06
0.000108866
-3.38615e-07
-1.79107e-06
4.01234e-07
-0.000119011
7.45285e-06
0.000119221
-8.22804e-06
-0.00012394
-6.24789e-06
0.000123063
7.52605e-06
2.16571e-07
7.58849e-06
-8.32832e-06
-6.28608e-06
7.52301e-06
4.60593e-06
-0.000110134
0.000111169
-0.000121991
0.000120349
4.38328e-06
-6.5649e-07
-0.000122311
-6.00347e-06
0.000121647
7.32424e-06
-0.000119317
7.06003e-06
1.20324e-07
0.00011932
-7.84058e-06
-5.40431e-07
-6.06578e-06
7.35789e-06
7.17893e-06
1.38804e-07
-7.95525e-06
-4.80842e-06
-0.000118965
0.00011777
-0.000111885
1.77008e-06
0.000112366
-4.6831e-06
1.7791e-06
4.42504e-07
-0.000117663
-8.68098e-07
0.000117811
3.97578e-07
-0.000118244
-4.26755e-07
5.88627e-08
0.000118223
8.31464e-07
4.09692e-07
-8.07412e-07
3.30261e-07
-4.50758e-07
4.90679e-08
8.26908e-07
3.98485e-07
-0.000109457
0.000109961
-0.000112633
5.28215e-08
0.000112552
3.81447e-07
3.98298e-08
-6.79468e-10
-0.00011978
-3.23319e-07
0.000119591
5.71597e-07
-0.00011978
-3.23227e-07
-6.09543e-08
0.000119591
5.71909e-07
-5.76533e-11
-3.08094e-07
5.50084e-07
-3.08039e-07
-4.90987e-08
5.50095e-07
-6.33526e-11
-0.000115307
0.000115036
-0.000115307
-5.28866e-08
0.000115036
-5.43887e-11
-3.99688e-08
-4.43684e-07
-0.000118244
-4.27172e-07
0.000118222
8.31652e-07
-0.000117662
-8.67972e-07
-1.2094e-07
0.00011781
3.97309e-07
-4.09961e-07
-4.50561e-07
8.26947e-07
-8.0704e-07
-1.38462e-07
3.29775e-07
-3.98887e-07
-0.000112633
0.000112551
-0.000109457
-1.77024e-06
0.00010996
-3.81595e-07
-1.77895e-06
6.57946e-07
-0.000119319
7.06282e-06
0.000119323
-7.84538e-06
-0.000122311
-6.00706e-06
0.000121646
7.3297e-06
5.4076e-07
7.1799e-06
-7.95724e-06
-6.06638e-06
7.35936e-06
4.81144e-06
-0.000111886
0.000112367
-0.000118967
0.000117772
4.68444e-06
-8.05218e-07
-0.000121057
-5.76555e-06
0.000120514
7.114e-06
-0.000119252
6.7179e-06
8.66735e-08
0.00011913
-7.48695e-06
-7.3356e-07
-5.82462e-06
7.14724e-06
6.81631e-06
1.03318e-07
-7.58517e-06
-4.87957e-06
-0.000116754
0.000115868
-0.000112653
1.70155e-06
0.00011279
-4.8087e-06
1.72062e-06
4.7717e-07
-0.000117903
-9.70281e-07
0.000117942
5.41215e-07
-0.00011819
-3.99081e-07
7.39103e-08
0.000118139
8.53311e-07
4.59071e-07
-9.11953e-07
4.6433e-07
-4.04311e-07
6.71245e-08
8.29652e-07
4.12721e-07
-0.000110366
0.000110684
-0.000112488
7.37253e-08
0.000112428
4.03498e-07
6.33116e-08
-1.228e-11
-0.000119406
-3.36922e-07
0.000119218
5.9885e-07
-0.000119406
-3.37141e-07
-7.41182e-08
0.000119218
5.99087e-07
7.88812e-11
-3.27642e-07
5.7947e-07
-3.27939e-07
-6.66151e-08
5.79669e-07
-9.48992e-12
-0.000114772
0.000114509
-0.000114772
-7.39683e-08
0.000114509
-2.81578e-11
-6.35954e-08
-4.78157e-07
-0.000118189
-3.99546e-07
0.000118139
8.54107e-07
-0.000117902
-9.70226e-07
-8.79534e-08
0.000117941
5.40545e-07
-4.59784e-07
-4.04676e-07
8.30557e-07
-9.11944e-07
-1.04328e-07
4.64188e-07
-4.13427e-07
-0.000112487
0.000112427
-0.000110365
-1.70276e-06
0.000110684
-4.03989e-07
-1.7211e-06
8.07957e-07
-0.000119255
6.72536e-06
0.00011913
-7.49702e-06
-0.000121057
-5.77613e-06
0.000120517
7.12464e-06
7.35987e-07
6.82171e-06
-7.59414e-06
-5.83072e-06
7.15594e-06
4.88537e-06
-0.000112654
0.000112791
-0.000116755
0.000115864
4.81384e-06
-8.90733e-07
-0.000120017
-5.57226e-06
0.000119545
6.93522e-06
-0.000118965
6.4344e-06
5.33163e-08
0.000118757
-7.17044e-06
-8.44758e-07
-5.60336e-06
6.9455e-06
6.49949e-06
6.83837e-08
-7.24764e-06
-4.87802e-06
-0.000115101
0.000114407
-0.000112807
1.62773e-06
0.000112735
-4.83588e-06
1.64682e-06
4.88735e-07
-0.000117931
-1.05552e-06
0.000117874
6.76953e-07
-0.000118068
-4.01636e-07
8.37917e-08
0.000117972
9.02252e-07
4.80124e-07
-1.00481e-06
6.0426e-07
-3.93282e-07
7.86131e-08
8.66212e-07
4.15561e-07
-0.000110916
0.000111072
-0.000112364
8.81494e-08
0.00011229
4.10754e-07
8.11954e-08
8.87536e-11
-0.000119028
-3.46834e-07
0.000118828
6.30755e-07
-0.000119028
-3.46912e-07
-8.36173e-08
0.000118828
6.30853e-07
5.5343e-11
-3.38486e-07
6.07563e-07
-3.3861e-07
-7.85771e-08
6.077e-07
5.02907e-11
-0.000114252
0.000113993
-0.000114251
-8.81179e-08
0.000113993
6.10052e-11
-8.12595e-08
-4.88854e-07
-0.000118068
-4.01942e-07
0.000117972
9.02684e-07
-0.000117931
-1.05602e-06
-5.27673e-08
0.000117875
6.76223e-07
-4.80825e-07
-3.93467e-07
8.66685e-07
-1.00432e-06
-6.92868e-08
6.02812e-07
-4.15946e-07
-0.000112364
0.00011229
-0.000110918
-1.62908e-06
0.000111075
-4.11371e-07
-1.649e-06
8.93106e-07
-0.000118963
6.4353e-06
0.000118755
-7.17338e-06
-0.000120019
-5.57051e-06
0.000119546
6.93665e-06
8.4798e-07
6.5087e-06
-7.25812e-06
-5.61049e-06
6.95608e-06
4.87837e-06
-0.000112812
0.000112739
-0.000115093
0.000114401
4.83897e-06
-9.36561e-07
-0.000119095
-5.41494e-06
0.000118653
6.79346e-06
-0.000118519
6.1925e-06
2.25288e-08
0.000118248
-6.88052e-06
-9.09e-07
-5.4337e-06
6.7927e-06
6.24663e-06
3.77922e-08
-6.95569e-06
-4.82794e-06
-0.000113782
0.000113195
-0.000112597
1.55816e-06
0.000112403
-4.80952e-06
1.57573e-06
4.85079e-07
-0.000117774
-1.12635e-06
0.000117631
8.06914e-07
-0.000117852
-4.25837e-07
8.95529e-08
0.000117702
9.70581e-07
4.83618e-07
-1.08152e-06
7.3525e-07
-4.07713e-07
8.68112e-08
9.24918e-07
4.10485e-07
-0.000111159
0.00011118
-0.000112203
9.40168e-08
0.000112093
4.07682e-07
8.68706e-08
9.71874e-12
-0.000118619
-3.60527e-07
0.000118394
6.74344e-07
-0.000118619
-3.60571e-07
-8.958e-08
0.000118394
6.74487e-07
5.43847e-11
-3.48412e-07
6.44168e-07
-3.4851e-07
-8.66973e-08
6.44305e-07
-8.05842e-12
-0.000113731
0.000113465
-0.000113731
-9.39715e-08
0.000113465
-9.32054e-11
-8.71986e-08
-4.85235e-07
-0.000117852
-4.26536e-07
0.000117702
9.71483e-07
-0.000117775
-1.12849e-06
-2.22874e-08
0.000117633
8.08258e-07
-4.83532e-07
-4.08232e-07
9.25581e-07
-1.08262e-06
-3.64947e-08
7.35313e-07
-4.11026e-07
-0.000112202
0.000112093
-0.000111161
-1.55905e-06
0.00011118
-4.08289e-07
-1.57661e-06
9.37646e-07
-0.000118517
6.19213e-06
0.000118247
-6.88174e-06
-0.000119095
-5.41178e-06
0.000118652
6.7921e-06
9.10033e-07
6.24823e-06
-6.95736e-06
-5.43191e-06
6.79327e-06
4.82941e-06
-0.0001126
0.000112403
-0.00011378
0.000113198
4.81135e-06
-9.58303e-07
-0.000118217
-5.29903e-06
0.000117778
6.69623e-06
-0.000117953
5.98475e-06
-2.51252e-09
0.000117628
-6.61543e-06
-9.40452e-07
-5.3022e-06
6.67873e-06
6.02965e-06
8.9058e-09
-6.6845e-06
-4.76111e-06
-0.000112644
0.000112106
-0.000112172
1.49549e-06
0.0001119
-4.75079e-06
1.51036e-06
4.73461e-07
-0.000117451
-1.18602e-06
0.000117232
9.29085e-07
-0.000117526
-4.65197e-07
9.2734e-08
0.000117319
1.05318e-06
4.75291e-07
-1.14618e-06
8.5947e-07
-4.40025e-07
9.08992e-08
1.00047e-06
4.00039e-07
-0.000111144
0.000111053
-0.000111963
9.47546e-08
0.000111803
4.00322e-07
9.09728e-08
-1.45081e-11
-0.000118156
-3.82612e-07
0.000117898
7.33891e-07
-0.000118156
-3.82478e-07
-9.28145e-08
0.000117898
7.33821e-07
-5.74234e-12
-3.6631e-07
6.95236e-07
-3.66342e-07
-9.08658e-08
6.95252e-07
1.25316e-10
-0.00011319
0.000112902
-0.00011319
-9.41598e-08
0.000112902
-2.42207e-10
-9.16486e-08
-4.73463e-07
-0.000117526
-4.65409e-07
0.000117319
1.05343e-06
-0.000117452
-1.18701e-06
3.45226e-09
0.000117232
9.30117e-07
-4.75372e-07
-4.40267e-07
1.00099e-06
-1.14759e-06
-8.5933e-09
8.61133e-07
-3.99899e-07
-0.000111962
0.000111802
-0.000111142
-1.4953e-06
0.00011105
-4.00795e-07
-1.5102e-06
9.56965e-07
-0.000117953
5.98203e-06
0.000117628
-6.61033e-06
-0.000118217
-5.2966e-06
0.000117779
6.69128e-06
9.40156e-07
6.02229e-06
-6.67691e-06
-5.29323e-06
6.66827e-06
4.76073e-06
-0.000112167
0.000111893
-0.000112653
0.000112117
4.74821e-06
-9.6149e-07
-0.000117336
-5.19636e-06
0.000116882
6.61259e-06
-0.000117285
5.77812e-06
-2.21243e-08
0.000116914
-6.34705e-06
-9.52652e-07
-5.18922e-06
6.58314e-06
5.81784e-06
-1.2812e-08
-6.41424e-06
-4.67728e-06
-0.00011159
0.00011107
-0.000111592
1.43988e-06
0.000111253
-4.67268e-06
1.4526e-06
4.57273e-07
-0.000116982
-1.24173e-06
0.000116694
1.05032e-06
-0.000117084
-5.13058e-07
9.33362e-08
0.000116816
1.14524e-06
4.61194e-07
-1.20327e-06
9.79895e-07
-4.83593e-07
9.24354e-08
1.0874e-06
3.87193e-07
-0.000110913
0.000110724
-0.000111616
9.37143e-08
0.000111396
3.89622e-07
9.27253e-08
-7.33168e-11
-0.000117622
-4.13993e-07
0.00011732
8.08888e-07
-0.000117621
-4.14056e-07
-9.34645e-08
0.00011732
8.08886e-07
-4.79484e-11
-3.9324e-07
7.62062e-07
-3.93314e-07
-9.25021e-08
7.62065e-07
-1.16337e-10
-0.000112601
0.000112281
-0.000112601
-9.39167e-08
0.000112281
-2.2196e-10
-9.3377e-08
-4.57476e-07
-0.000117084
-5.13452e-07
0.000116816
1.14555e-06
-0.000116982
-1.24209e-06
2.16786e-08
0.000116694
1.05046e-06
-4.61338e-07
-4.83996e-07
1.08782e-06
-1.20407e-06
1.2817e-08
9.80457e-07
-3.87767e-07
-0.000111615
0.000111396
-0.00011091
-1.44096e-06
0.000110721
-3.90505e-07
-1.4538e-06
9.64002e-07
-0.000117285
5.78454e-06
0.000116914
-6.35564e-06
-0.000117338
-5.20138e-06
0.000116884
6.62025e-06
9.52978e-07
5.82457e-06
-6.42201e-06
-5.1948e-06
6.58869e-06
4.68314e-06
-0.000111585
0.000111245
-0.000111601
0.000111083
4.67942e-06
-9.62645e-07
-0.000116418
-5.11958e-06
0.000115937
6.56352e-06
-0.000116528
5.5951e-06
-3.4563e-08
0.000116105
-6.10027e-06
-9.50522e-07
-5.10668e-06
6.52084e-06
5.63009e-06
-2.89581e-08
-6.16514e-06
-4.59947e-06
-0.000110556
0.000110036
-0.00011089
1.39039e-06
0.000110496
-4.59209e-06
1.40092e-06
4.40376e-07
-0.000116376
-1.29459e-06
0.000116021
1.17463e-06
-0.000116519
-5.67778e-07
9.25051e-08
0.000116187
1.24763e-06
4.44248e-07
-1.25617e-06
1.10075e-06
-5.34558e-07
9.21269e-08
1.18339e-06
3.74155e-07
-0.000110492
0.000110213
-0.000111147
9.2226e-08
0.000110861
3.7705e-07
9.21175e-08
-8.37779e-11
-0.000116997
-4.54802e-07
0.000116645
8.99795e-07
-0.000116997
-4.54661e-07
-9.25433e-08
0.000116645
8.9957e-07
-8.08685e-11
-4.29033e-07
8.44031e-07
-4.29005e-07
-9.22311e-08
8.43935e-07
-6.68367e-11
-0.000111944
0.000111582
-0.000111944
-9.22406e-08
0.000111582
-7.58092e-11
-9.22082e-08
-4.39751e-07
-0.000116519
-5.67313e-07
0.000116187
1.24682e-06
-0.000116375
-1.29385e-06
3.74336e-08
0.000116019
1.1726e-06
-4.44123e-07
-5.34418e-07
1.18314e-06
-1.25566e-06
3.02133e-08
1.10007e-06
-3.73948e-07
-0.000111146
0.00011086
-0.000110489
-1.39021e-06
0.000110211
-3.76968e-07
-1.4006e-06
9.59433e-07
-0.000116522
5.58816e-06
0.000116102
-6.09043e-06
-0.000116421
-5.11404e-06
0.000115938
6.55696e-06
9.5225e-07
5.62868e-06
-6.15893e-06
-5.10178e-06
6.51647e-06
4.59035e-06
-0.000110884
0.000110491
-0.000110571
0.000110047
4.58943e-06
-9.54001e-07
-0.000115443
-5.04549e-06
0.000114925
6.51817e-06
-0.000115659
5.39773e-06
-4.5522e-08
0.000115185
-5.83145e-06
-9.50929e-07
-5.02829e-06
6.47264e-06
5.44126e-06
-3.92107e-08
-5.90747e-06
-4.50517e-06
-0.000109515
0.000108975
-0.000110076
1.34511e-06
0.000109623
-4.50745e-06
1.3534e-06
4.22282e-07
-0.000115637
-1.34315e-06
0.000115214
1.2981e-06
-0.000115826
-6.25561e-07
9.04573e-08
0.000115427
1.35622e-06
4.2719e-07
-1.30586e-06
1.22372e-06
-5.90209e-07
9.07119e-08
1.28795e-06
3.60739e-07
-0.000109897
0.000109538
-0.000110544
8.97696e-08
0.00011019
3.63736e-07
9.0107e-08
-1.29339e-10
-0.000116268
-5.03157e-07
0.000115858
1.00379e-06
-0.000116268
-5.03017e-07
-9.06849e-08
0.000115858
1.00354e-06
-1.14178e-10
-4.73249e-07
9.40683e-07
-4.7311e-07
-9.0779e-08
9.40396e-07
-8.15908e-11
-0.000111199
0.000110786
-0.000111199
-8.98381e-08
0.000110786
-1.3347e-10
-9.03083e-08
-4.22621e-07
-0.000115825
-6.25068e-07
0.000115427
1.35541e-06
-0.000115636
-1.34127e-06
4.49663e-08
0.000115214
1.29486e-06
-4.26745e-07
-5.89672e-07
1.28692e-06
-1.30443e-06
4.11317e-08
1.22047e-06
-3.60684e-07
-0.000110544
0.00011019
-0.000109896
-1.34515e-06
0.00010954
-3.63699e-07
-1.35348e-06
9.54362e-07
-0.000115662
5.4016e-06
0.000115187
-5.83571e-06
-0.000115441
-5.05327e-06
0.000114922
6.52622e-06
9.47268e-07
5.44001e-06
-5.90586e-06
-5.02927e-06
6.4736e-06
4.50443e-06
-0.000110075
0.000109627
-0.00010952
0.000108972
4.5026e-06
-9.44133e-07
-0.000114383
-4.98716e-06
0.000113812
6.50197e-06
-0.000114692
5.20711e-06
-5.38138e-08
0.000114165
-5.57026e-06
-9.39307e-07
-4.95661e-06
6.43791e-06
5.24432e-06
-4.9878e-08
-5.64139e-06
-4.41092e-06
-0.00010843
0.000107854
-0.000109145
1.30444e-06
0.000108637
-4.4119e-06
1.31092e-06
4.04958e-07
-0.000114762
-1.39292e-06
0.000114272
1.42481e-06
-0.000114998
-6.88176e-07
8.78833e-08
0.000114529
1.47383e-06
4.09113e-07
-1.35472e-06
1.34733e-06
-6.49793e-07
8.83071e-08
1.39951e-06
3.47773e-07
-0.000109144
0.000108708
-0.000109803
8.68606e-08
0.000109376
3.50562e-07
8.74553e-08
-1.94531e-11
-0.000115421
-5.59201e-07
0.000114947
1.12129e-06
-0.000115421
-5.59087e-07
-8.78541e-08
0.000114947
1.12108e-06
-5.98116e-11
-5.24925e-07
1.05018e-06
-5.24785e-07
-8.8401e-08
1.04995e-06
-2.61643e-11
-0.000110348
0.000109876
-0.000110348
-8.68167e-08
0.000109876
-5.08942e-11
-8.74759e-08
-4.05045e-07
-0.000114998
-6.87883e-07
0.00011453
1.47351e-06
-0.000114764
-1.39229e-06
5.35302e-08
0.000114273
1.42431e-06
-4.09459e-07
-6.49251e-07
1.39896e-06
-1.35298e-06
4.91152e-08
1.34516e-06
-3.4766e-07
-0.000109804
0.000109377
-0.000109147
-1.30469e-06
0.000108712
-3.50389e-07
-1.31078e-06
9.42704e-07
-0.000114694
5.20844e-06
0.000114164
-5.56756e-06
-0.00011438
-4.9923e-06
0.00011381
6.50522e-06
9.39456e-07
5.2451e-06
-5.64273e-06
-4.96097e-06
6.44194e-06
4.41094e-06
-0.000109151
0.000108644
-0.000108421
0.000107839
4.41007e-06
-9.33263e-07
-0.00011322
-4.94659e-06
0.000112595
6.50482e-06
-0.00011361
5.02055e-06
-5.74228e-08
0.000113014
-5.29983e-06
-9.29825e-07
-4.91457e-06
6.43656e-06
5.0633e-06
-5.50822e-08
-5.3834e-06
-4.31843e-06
-0.00010726
0.000106632
-0.000108107
1.26611e-06
0.000107543
-4.32089e-06
1.27213e-06
3.88959e-07
-0.000113752
-1.44165e-06
0.000113191
1.55612e-06
-0.00011403
-7.53574e-07
8.48497e-08
0.000113489
1.59916e-06
3.92859e-07
-1.40269e-06
1.47431e-06
-7.13226e-07
8.55159e-08
1.52001e-06
3.35235e-07
-0.000108239
0.000107728
-0.000108916
8.35749e-08
0.000108414
3.38031e-07
8.43634e-08
-1.71769e-10
-0.000114444
-6.21481e-07
0.0001139
1.25042e-06
-0.000114444
-6.21399e-07
-8.51165e-08
0.0001139
1.25022e-06
-1.0297e-10
-5.83696e-07
1.17261e-06
-5.83631e-07
-8.56562e-08
1.17242e-06
-1.20784e-10
-0.000109377
0.000108839
-0.000109377
-8.37316e-08
0.000108839
-1.08021e-10
-8.45276e-08
-3.8879e-07
-0.000114031
-7.53624e-07
0.000113489
1.59884e-06
-0.000113754
-1.44235e-06
5.82901e-08
0.000113192
1.55653e-06
-3.92907e-07
-7.13173e-07
1.51966e-06
-1.40277e-06
5.50227e-08
1.47421e-06
-3.35282e-07
-0.000108917
0.000108415
-0.000108243
-1.26599e-06
0.000107732
-3.38214e-07
-1.27257e-06
9.32633e-07
-0.000113606
5.01746e-06
0.00011301
-5.29599e-06
-0.00011322
-4.94433e-06
0.000112595
6.50205e-06
9.28851e-07
5.0649e-06
-5.381e-06
-4.91846e-06
6.4372e-06
4.3191e-06
-0.000108114
0.000107546
-0.000107244
0.000106619
4.32296e-06
-9.18639e-07
-0.000111945
-4.90963e-06
0.00011126
6.51407e-06
-0.000112393
4.82662e-06
-6.01587e-08
0.000111728
-5.02007e-06
-9.15945e-07
-4.87426e-06
6.43972e-06
4.87266e-06
-5.87929e-08
-5.10908e-06
-4.22749e-06
-0.00010599
0.000105308
-0.000106948
1.23114e-06
0.000106316
-4.23214e-06
1.23573e-06
3.73908e-07
-0.000112599
-1.49614e-06
0.000111963
1.69811e-06
-0.000112915
-8.23956e-07
8.18936e-08
0.000112296
1.73488e-06
3.77481e-07
-1.45456e-06
1.61012e-06
-7.80644e-07
8.25548e-08
1.64956e-06
3.23459e-07
-0.000107184
0.000106595
-0.000107879
8.02675e-08
0.000107298
3.25981e-07
8.11187e-08
-8.05334e-11
-0.000113324
-6.90241e-07
0.000112705
1.39172e-06
-0.000113325
-6.90076e-07
-8.18762e-08
0.000112705
1.39146e-06
-1.45804e-10
-6.48768e-07
1.30685e-06
-6.48637e-07
-8.27355e-08
1.30661e-06
-4.68603e-11
-0.000108271
0.000107661
-0.000108271
-8.01958e-08
0.000107661
-8.17402e-11
-8.11595e-08
-3.73037e-07
-0.000112915
-8.23584e-07
0.000112295
1.73415e-06
-0.000112599
-1.49593e-06
6.28999e-08
0.000111962
1.69724e-06
-3.76961e-07
-7.80469e-07
1.64902e-06
-1.45484e-06
6.0729e-08
1.61005e-06
-3.22918e-07
-0.000107879
0.000107298
-0.000107186
-1.22973e-06
0.000106597
-3.25727e-07
-1.23511e-06
9.16848e-07
-0.000112393
4.82001e-06
0.000111732
-5.0134e-06
-0.000111944
-4.89944e-06
0.000111254
6.50686e-06
9.14926e-07
4.86705e-06
-5.10328e-06
-4.86781e-06
6.43388e-06
4.22086e-06
-0.000106951
0.000106321
-0.000105978
0.000105299
4.22678e-06
-9.04265e-07
-0.000110545
-4.87539e-06
0.000109787
6.53836e-06
-0.000111033
4.62901e-06
-6.28044e-08
0.000110295
-4.73253e-06
-9.02854e-07
-4.84098e-06
6.45815e-06
4.6822e-06
-6.06151e-08
-4.82965e-06
-4.12813e-06
-0.000104602
0.000103855
-0.00010566
1.19687e-06
0.000104964
-4.13586e-06
1.2017e-06
3.59063e-07
-0.000111296
-1.55202e-06
0.000110581
1.84509e-06
-0.000111643
-8.97481e-07
7.85574e-08
0.000110943
1.87846e-06
3.6277e-07
-1.50832e-06
1.75258e-06
-8.51638e-07
7.94411e-08
1.7875e-06
3.11723e-07
-0.000105974
0.000105307
-0.000106683
7.66852e-08
0.00010602
3.14312e-07
7.76901e-08
-7.10381e-11
-0.000112052
-7.64065e-07
0.000111352
1.54317e-06
-0.000112052
-7.64019e-07
-7.86098e-08
0.000111352
1.54306e-06
-5.92708e-11
-7.19299e-07
1.45159e-06
-7.19194e-07
-7.94071e-08
1.4514e-06
-5.27106e-11
-0.00010702
0.000106333
-0.00010702
-7.67647e-08
0.000106333
-5.40609e-11
-7.7683e-08
-3.58943e-07
-0.000111643
-8.97414e-07
0.000110942
1.87818e-06
-0.000111294
-1.55181e-06
6.23915e-08
0.00011058
1.84482e-06
-3.62198e-07
-8.51361e-07
1.78691e-06
-1.50793e-06
6.18319e-08
1.75177e-06
-3.11473e-07
-0.000106683
0.000106021
-0.000105976
-1.19571e-06
0.000105308
-3.14035e-07
-1.20081e-06
9.03724e-07
-0.000111041
4.62969e-06
0.000110302
-4.73235e-06
-0.000110537
-4.8786e-06
0.000109783
6.53697e-06
9.00961e-07
4.68021e-06
-4.82826e-06
-4.83852e-06
6.45561e-06
4.13271e-06
-0.000105665
0.000104967
-0.000104595
0.000103849
4.13454e-06
-8.87332e-07
-0.000108995
-4.84771e-06
0.000108157
6.57312e-06
-0.000109532
4.42524e-06
-6.45085e-08
0.000108721
-4.43675e-06
-8.87707e-07
-4.80827e-06
6.48726e-06
4.48006e-06
-6.3311e-08
-4.54131e-06
-4.03655e-06
-0.000103089
0.000102278
-0.000104232
1.16507e-06
0.000103456
-4.04245e-06
1.16951e-06
3.45237e-07
-0.000109833
-1.61453e-06
0.000109035
2.00226e-06
-0.000110207
-9.75941e-07
7.5305e-08
0.000109421
2.03196e-06
3.48572e-07
-1.56809e-06
1.9041e-06
-9.27285e-07
7.61851e-08
1.93526e-06
3.00719e-07
-0.000104605
0.000103855
-0.000105322
7.28473e-08
0.000104574
3.03557e-07
7.4609e-08
-9.13615e-11
-0.000110616
-8.43323e-07
0.000109829
1.7053e-06
-0.000110616
-8.43345e-07
-7.53872e-08
0.000109829
1.70523e-06
-6.36759e-11
-7.95406e-07
1.60748e-06
-7.9535e-07
-7.62693e-08
1.60741e-06
-2.89907e-10
-0.000105612
0.000104841
-0.000105611
-7.38589e-08
0.000104842
8.61299e-11
-7.40743e-08
-3.45312e-07
-0.000110207
-9.75942e-07
0.00010942
2.03201e-06
-0.000109832
-1.61473e-06
6.40419e-08
0.000109035
2.00306e-06
-3.48562e-07
-9.27423e-07
1.93528e-06
-1.56846e-06
6.27142e-08
1.9049e-06
-3.01028e-07
-0.000105322
0.000104573
-0.000104606
-1.1648e-06
0.000103855
-3.02989e-07
-1.16864e-06
8.89517e-07
-0.000109536
4.42921e-06
0.000108719
-4.4376e-06
-0.000108993
-4.84978e-06
0.000108159
6.57367e-06
8.87949e-07
4.48103e-06
-4.53983e-06
-4.80868e-06
6.48638e-06
4.03905e-06
-0.000104233
0.000103458
-0.000103087
0.000102276
4.04624e-06
-8.71206e-07
-0.000107289
-4.8379e-06
0.000106373
6.62497e-06
-0.000107878
4.2272e-06
-6.39532e-08
0.00010698
-4.13566e-06
-8.68415e-07
-4.79203e-06
6.52894e-06
4.2824e-06
-6.40201e-08
-4.24421e-06
-3.94645e-06
-0.000101437
0.000100545
-0.00010265
1.1345e-06
0.000101796
-3.95052e-06
1.13827e-06
3.32955e-07
-0.000108204
-1.67927e-06
0.00010732
2.16615e-06
-0.000108599
-1.05771e-06
7.22915e-08
0.000107724
2.19363e-06
3.3544e-07
-1.63035e-06
2.06234e-06
-1.00628e-06
7.29022e-08
2.09084e-06
2.89869e-07
-0.00010307
0.000102235
-0.000103789
6.84765e-08
0.000102953
2.93163e-07
7.19494e-08
-1.11269e-10
-0.000109006
-9.27209e-07
0.000108129
1.87647e-06
-0.000109006
-9.27357e-07
-7.22822e-08
0.000108129
1.87639e-06
-8.20652e-11
-8.76161e-07
1.77216e-06
-8.75952e-07
-7.31584e-08
1.77208e-06
-8.77762e-10
-0.000104037
0.000103179
-0.000104036
-7.17268e-08
0.00010318
4.1161e-10
-7.00483e-08
-3.32897e-07
-0.000108598
-1.05745e-06
0.000107723
2.19358e-06
-0.000108203
-1.6796e-06
6.38357e-08
0.00010732
2.16674e-06
-3.35604e-07
-1.00642e-06
2.09089e-06
-1.63097e-06
6.32734e-08
2.06322e-06
-2.91356e-07
-0.000103789
0.000102951
-0.000103069
-1.13472e-06
0.000102233
-2.92228e-07
-1.13784e-06
8.74173e-07
-0.000107875
4.22505e-06
0.000106979
-4.13907e-06
-0.000107289
-4.83463e-06
0.000106371
6.6266e-06
8.73408e-07
4.28165e-06
-4.24821e-06
-4.78811e-06
6.53102e-06
3.94776e-06
-0.000102649
0.000101791
-0.000101441
0.000100554
3.95334e-06
-8.57921e-07
-0.000105419
-4.83196e-06
0.000104414
6.69494e-06
-0.000106049
4.02688e-06
-6.26942e-08
0.000105062
-3.83523e-06
-8.57866e-07
-4.77921e-06
6.59084e-06
4.08277e-06
-6.20159e-08
-3.94821e-06
-3.85802e-06
-9.96298e-05
9.86559e-05
-0.000100905
1.1055e-06
9.99687e-05
-3.8637e-06
1.1097e-06
3.21319e-07
-0.000106402
-1.74715e-06
0.000105428
2.3371e-06
-0.000106811
-1.14267e-06
6.94002e-08
0.000105843
2.36278e-06
3.23938e-07
-1.69621e-06
2.22861e-06
-1.0887e-06
7.0016e-08
2.25481e-06
2.79926e-07
-0.000101364
0.000100443
-0.000102078