/*--------------------------------*- C++ -*----------------------------------*\
  =========                 |
  \\      /  F ield         | OpenFOAM: The Open Source CFD Toolbox
   \\    /   O peration     | Website:  https://openfoam.org
    \\  /    A nd           | Version:  9
     \\/     M anipulation  |
\*---------------------------------------------------------------------------*/
FoamFile
{
    format      ascii;
    class       volVectorField;
    location    "0.8";
    object      U;
}
// * * * * * * * * * * * * * * * * * * * * * * * * * * * * * * * * * * * * * //

dimensions      [0 1 -1 0 0 0 0];

internalField   nonuniform List<vector> 
36360
(
(-0.00414052 -0.28066 -0.99136)
(-0.00146786 -0.175391 0.000312244)
(-0.00395332 -0.279848 -1.00285)
(-0.00363033 -0.165349 3.63557e-05)
(-0.00550173 -0.27246 -0.995786)
(0.025489 -0.192859 2.48572e-05)
(-0.00205528 -0.266812 -1.00364)
(0.0279044 -0.209878 6.44687e-05)
(-0.00385673 -0.213666 -0.000241309)
(-0.00458339 -0.224131 -3.81907e-06)
(-0.00560724 -0.212326 -6.66834e-05)
(-0.00465936 -0.221736 3.28426e-06)
(0.00946647 -0.227397 -1.62418e-05)
(0.00771299 -0.229134 -4.74751e-06)
(0.0119172 -0.230784 -9.79507e-05)
(0.010749 -0.231783 -1.73274e-06)
(-0.0041425 -0.225599 5.60381e-06)
(-0.00414248 -0.225599 -5.61115e-06)
(-0.00444771 -0.223299 1.04815e-06)
(-0.0044477 -0.223299 -1.05054e-06)
(0.00789752 -0.228791 1.83821e-08)
(0.00789752 -0.228791 -2.69502e-08)
(0.0107177 -0.23161 1.06936e-06)
(0.0107177 -0.231609 -1.07214e-06)
(-0.0045833 -0.22413 3.81265e-06)
(-0.00385712 -0.213664 0.000241296)
(-0.00465933 -0.221736 -3.28625e-06)
(-0.00560728 -0.212325 6.66698e-05)
(0.00771301 -0.229133 4.74033e-06)
(0.00946626 -0.227395 1.62451e-05)
(0.010749 -0.231782 1.72993e-06)
(0.0119172 -0.230783 9.79389e-05)
(-0.00146866 -0.17539 -0.000312201)
(-0.00414156 -0.280662 0.99136)
(-0.00363142 -0.165348 -3.63387e-05)
(-0.00395182 -0.279851 1.00285)
(0.0254888 -0.192858 -2.48265e-05)
(-0.00550186 -0.272459 0.995786)
(0.0279041 -0.209876 -6.44526e-05)
(-0.00205413 -0.266813 1.00364)
(0.0092079 -0.263228 -0.975328)
(-0.0106725 -0.204484 0.000874012)
(0.0048466 -0.273201 -0.98389)
(-0.00580106 -0.193366 0.000695041)
(0.00507545 -0.273538 -0.992627)
(0.0041698 -0.173885 -0.000222114)
(0.00277768 -0.277735 -0.992901)
(0.0143759 -0.17295 -0.000105203)
(0.00319657 -0.216309 -0.000392076)
(-0.000650295 -0.226963 -3.5956e-05)
(0.00102176 -0.214496 -0.000384137)
(-0.00319575 -0.227047 -2.1415e-05)
(0.012311 -0.21285 0.000276285)
(0.00466034 -0.223969 -1.75785e-05)
(0.0109845 -0.220773 0.000115801)
(0.00571424 -0.225577 -1.26652e-05)
(-0.00183838 -0.230668 4.01397e-06)
(-0.00183835 -0.230668 -4.03599e-06)
(-0.00287002 -0.229111 6.82833e-06)
(-0.00287 -0.229111 -6.84229e-06)
(0.00450085 -0.222885 -1.11175e-05)
(0.00450093 -0.222885 1.10929e-05)
(0.00614265 -0.224631 -3.82021e-06)
(0.00614268 -0.224631 3.80413e-06)
(-0.00065021 -0.226963 3.59337e-05)
(0.003197 -0.216308 0.00039206)
(-0.00319596 -0.227046 2.14022e-05)
(0.00102118 -0.214496 0.000384124)
(0.00466064 -0.223968 1.75587e-05)
(0.0123119 -0.212849 -0.00027629)
(0.00571425 -0.225577 1.26514e-05)
(0.010984 -0.220772 -0.000115801)
(-0.0106718 -0.204483 -0.000873964)
(0.00920795 -0.263232 0.975327)
(-0.00580116 -0.193365 -0.000694983)
(0.00484492 -0.273204 0.98389)
(0.00417226 -0.173882 0.000222185)
(0.00507632 -0.273541 0.992626)
(0.014376 -0.172952 0.00010525)
(0.00277639 -0.277737 0.992901)
(0.0145038 -0.25198 -0.964593)
(-0.0169669 -0.216252 0.000714506)
(0.0126268 -0.257018 -0.968817)
(-0.0145541 -0.211533 0.000839964)
(0.00940484 -0.259148 -0.994434)
(-0.0095301 -0.183289 -0.000653827)
(0.00758267 -0.265317 -0.995298)
(-0.00451628 -0.177777 -0.000407148)
(0.00174849 -0.218874 -0.000181369)
(0.00138177 -0.226255 -3.07466e-05)
(0.00282069 -0.217863 -0.00030503)
(0.000921368 -0.226597 -4.12844e-05)
(0.00700328 -0.202802 0.000747213)
(0.0029348 -0.21973 2.05063e-05)
(0.00996462 -0.20649 0.000504741)
(0.00385952 -0.222039 -7.07064e-06)
(-0.000341553 -0.231066 -1.03922e-05)
(-0.000341575 -0.231066 1.03488e-05)
(-0.000966714 -0.231153 -3.05211e-06)
(-0.000966685 -0.231153 3.02101e-06)
(0.000961114 -0.221783 -1.89688e-05)
(0.00096117 -0.221783 1.89214e-05)
(0.00246704 -0.222167 -1.67402e-05)
(0.0024671 -0.222167 1.67051e-05)
(0.00138165 -0.226254 3.07105e-05)
(0.00174795 -0.218873 0.000181369)
(0.000921313 -0.226596 4.12564e-05)
(0.00282042 -0.217862 0.000305025)
(0.00293465 -0.219729 -2.05432e-05)
(0.00700292 -0.202801 -0.000747228)
(0.00385942 -0.222037 7.04332e-06)
(0.00996462 -0.206489 -0.000504747)
(-0.0169686 -0.216252 -0.000714466)
(0.0145029 -0.251983 0.964591)
(-0.0145551 -0.211532 -0.000839928)
(0.0126258 -0.257021 0.968816)
(-0.00953119 -0.183288 0.000653967)
(0.00940427 -0.259152 0.994434)
(-0.00451661 -0.177775 0.000407249)
(0.00758276 -0.265319 0.995297)
(0.0160572 -0.243984 -0.959606)
(-0.0188652 -0.221973 0.000388663)
(0.0155038 -0.247623 -0.961508)
(-0.0182888 -0.219561 0.000555685)
(0.0109023 -0.247219 -0.993302)
(-0.0130988 -0.195593 -0.00114789)
(0.0103904 -0.25305 -0.993734)
(-0.0120379 -0.189592 -0.000909068)
(0.000263156 -0.220307 5.03243e-05)
(0.00129808 -0.225366 3.94516e-05)
(0.000830521 -0.219612 -5.69498e-05)
(0.00139144 -0.225803 -1.65537e-06)
(0.00397125 -0.201523 0.00113329)
(0.00157307 -0.216632 0.000108909)
(0.00506219 -0.201449 0.000960824)
(0.00208482 -0.217902 6.09351e-05)
(0.000219102 -0.230079 -1.15262e-05)
(0.000219161 -0.230079 1.14541e-05)
(8.23566e-06 -0.230644 -1.37185e-05)
(8.28471e-06 -0.230644 1.36571e-05)
(0.000111392 -0.221266 -1.46465e-05)
(0.000111366 -0.221266 1.45686e-05)
(0.000306602 -0.221484 -1.8242e-05)
(0.000306581 -0.221484 1.81793e-05)
(0.0012983 -0.225365 -3.95093e-05)
(0.000263195 -0.220307 -5.03247e-05)
(0.00139147 -0.225802 1.60258e-06)
(0.0008302 -0.219611 5.69525e-05)
(0.00157321 -0.21663 -0.00010897)
(0.00397189 -0.201521 -0.00113333)
(0.00208479 -0.217901 -6.09852e-05)
(0.00506213 -0.201447 -0.000960854)
(-0.0188664 -0.221974 -0.000388615)
(0.0160583 -0.243986 0.959602)
(-0.0182905 -0.219561 -0.000555636)
(0.0155033 -0.247626 0.961505)
(-0.0130987 -0.195593 0.00114812)
(0.0109052 -0.247223 0.993301)
(-0.0120391 -0.189592 0.000909249)
(0.0103903 -0.253055 0.993733)
(0.0165057 -0.238484 -0.95721)
(-0.0189185 -0.225003 7.63651e-05)
(0.0163572 -0.24098 -0.958056)
(-0.0190061 -0.223743 0.000226225)
(0.011157 -0.237454 -0.992764)
(-0.0132959 -0.204852 -0.00154727)
(0.0111081 -0.242 -0.992961)
(-0.0133941 -0.200735 -0.00136138)
(-0.000178625 -0.221707 0.000199361)
(0.00113822 -0.224857 0.000131817)
(-4.56359e-05 -0.221011 0.000135409)
(0.00120756 -0.225048 8.57541e-05)
(0.00317974 -0.203579 0.00135954)
(0.00107794 -0.215133 0.000208737)
(0.00343393 -0.202371 0.00126425)
(0.00127408 -0.215755 0.000159548)
(0.000519568 -0.228996 3.33184e-06)
(0.000519544 -0.228996 -3.44934e-06)
(0.000380656 -0.229511 -5.20726e-06)
(0.000380671 -0.229511 5.11728e-06)
(0.000160539 -0.220736 -7.21601e-07)
(0.000160445 -0.220736 5.98362e-07)
(0.00010203 -0.221054 -8.50184e-06)
(0.000101964 -0.221054 8.4026e-06)
(0.00113817 -0.224856 -0.000131902)
(-0.000178953 -0.221707 -0.000199323)
(0.00120758 -0.225047 -8.58196e-05)
(-4.59486e-05 -0.22101 -0.000135395)
(0.00107783 -0.215132 -0.000208845)
(0.00317988 -0.203578 -0.00135956)
(0.00127398 -0.215754 -0.000159625)
(0.00343388 -0.20237 -0.00126428)
(-0.0189201 -0.225004 -7.62883e-05)
(0.0165071 -0.238486 0.957205)
(-0.0190079 -0.223743 -0.000226167)
(0.0163578 -0.240982 0.958051)
(-0.0132968 -0.204853 0.00154762)
(0.0111601 -0.237458 0.992762)
(-0.0133954 -0.200736 0.00136166)
(0.01111 -0.242005 0.99296)
(0.0165275 -0.234595 -0.955958)
(-0.0185097 -0.226372 -0.000173836)
(0.0165465 -0.236385 -0.95634)
(-0.0187278 -0.225848 -5.74467e-05)
(0.0109588 -0.230176 -0.992477)
(-0.012752 -0.210299 -0.0018384)
(0.0110786 -0.233534 -0.992572)
(-0.0130279 -0.207991 -0.00170542)
(-0.000147919 -0.222937 0.000276256)
(0.00105386 -0.224714 0.00021157)
(-0.000197513 -0.222363 0.00024486)
(0.00108912 -0.224759 0.000174431)
(0.00314145 -0.206239 0.00146878)
(0.000821347 -0.21435 0.000293236)
(0.00310153 -0.204919 0.00142539)
(0.000933958 -0.214682 0.000253788)
(0.000699772 -0.228141 2.31193e-05)
(0.00069966 -0.228141 -2.32871e-05)
(0.000626025 -0.228546 1.30122e-05)
(0.000625954 -0.228546 -1.31627e-05)
(0.000276784 -0.219849 1.75169e-05)
(0.000276643 -0.219848 -1.76963e-05)
(0.000225605 -0.220324 8.19044e-06)
(0.000225543 -0.220324 -8.34736e-06)
(0.00105354 -0.224713 -0.000211718)
(-0.000148582 -0.222936 -0.000276133)
(0.00108885 -0.224758 -0.000174547)
(-0.000198175 -0.222362 -0.000244781)
(0.000820736 -0.214349 -0.000293441)
(0.00314055 -0.206238 -0.00146878)
(0.000933707 -0.214681 -0.000253935)
(0.00310096 -0.204918 -0.0014254)
(-0.018511 -0.226373 0.000173976)
(0.0165287 -0.234598 0.955952)
(-0.0187297 -0.225849 5.75658e-05)
(0.0165467 -0.236387 0.956335)
(-0.0127538 -0.210302 0.00183902)
(0.0109622 -0.230179 0.992475)
(-0.0130302 -0.207992 0.00170586)
(0.0110803 -0.233537 0.992571)
(0.0163924 -0.231733 -0.955202)
(-0.0180987 -0.226728 -0.000358437)
(0.0164643 -0.233069 -0.955395)
(-0.0182944 -0.226648 -0.000273613)
(0.0106134 -0.224871 -0.9923)
(-0.0122146 -0.213075 -0.00203945)
(0.0107848 -0.227318 -0.992352)
(-0.012471 -0.211947 -0.00194866)
(4.7077e-05 -0.223726 0.000305252)
(0.00102647 -0.224653 0.000269775)
(-5.99366e-05 -0.223392 0.000295908)
(0.00103407 -0.224686 0.000243067)
(0.00335451 -0.208479 0.00150801)
(0.000650647 -0.213927 0.000354226)
(0.00324006 -0.207442 0.00149481)
(0.000728598 -0.214106 0.000326611)
(0.000776354 -0.227403 4.2612e-05)
(0.000776544 -0.227403 -4.2472e-05)
(0.000746042 -0.227764 3.30564e-05)
(0.000746014 -0.227764 -3.31824e-05)
(0.00032708 -0.218828 3.54442e-05)
(0.000326984 -0.218828 -3.56038e-05)
(0.000309167 -0.219342 2.67161e-05)
(0.000308977 -0.219341 -2.68986e-05)
(0.00102694 -0.224651 -0.000269569)
(4.63467e-05 -0.223723 -0.000306491)
(0.00103393 -0.224685 -0.000243238)
(-6.0877e-05 -0.22339 -0.000295951)
(0.000650868 -0.213927 -0.000354606)
(0.00335428 -0.208479 -0.00150845)
(0.000727937 -0.214106 -0.000326902)
(0.00323923 -0.207441 -0.00149491)
(-0.0180999 -0.226734 0.000358999)
(0.016398 -0.231736 0.955192)
(-0.0182962 -0.226652 0.000273935)
(0.0164661 -0.233068 0.955388)
(-0.0122242 -0.213078 0.00204138)
(0.0106256 -0.224877 0.992297)
(-0.0124738 -0.211949 0.00194966)
(0.0107865 -0.22732 0.992351)
(0.0162425 -0.229477 -0.954625)
(-0.0177703 -0.226475 -0.000489754)
(0.016316 -0.230556 -0.954734)
(-0.0179255 -0.226669 -0.000429617)
(0.0102544 -0.220968 -0.99217)
(-0.0117161 -0.214194 -0.00217538)
(0.0104289 -0.222781 -0.9922)
(-0.0119587 -0.213802 -0.00211386)
(0.000258154 -0.224073 0.000306304)
(0.00104851 -0.224524 0.000308002)
(0.000159191 -0.223953 0.00030834)
(0.00103175 -0.224603 0.000290832)
(0.00358736 -0.210024 0.00150919)
(0.000559119 -0.213675 0.000393878)
(0.00347044 -0.209341 0.00151187)
(0.000593473 -0.213792 0.00037633)
(0.000818856 -0.226698 5.84564e-05)
(0.000819131 -0.226698 -5.86096e-05)
(0.000798708 -0.227051 5.08996e-05)
(0.000799092 -0.22705 -5.11884e-05)
(0.000351059 -0.217819 5.05278e-05)
(0.000351586 -0.217818 -5.07074e-05)
(0.000339581 -0.21832 4.33634e-05)
(0.000340067 -0.21832 -4.36235e-05)
(0.00104933 -0.224523 -0.000308637)
(0.000256871 -0.224072 -0.00030768)
(0.00103268 -0.224601 -0.00029167)
(0.000158321 -0.22395 -0.00030938)
(0.000560195 -0.213674 -0.000394697)
(0.00358812 -0.210025 -0.00151067)
(0.000594353 -0.213791 -0.000377049)
(0.00347118 -0.209339 -0.00151272)
(-0.0177735 -0.226484 0.000491194)
(0.0162541 -0.229478 0.953079)
(-0.0179282 -0.226671 0.000430988)
(0.0163234 -0.230552 0.953192)
(-0.0117423 -0.214199 0.00217852)
(0.0102854 -0.220973 0.992167)
(-0.0119766 -0.213802 0.00211706)
(0.0104471 -0.222779 0.992196)
(0.0161336 -0.227575 -0.946551)
(-0.0175094 -0.225853 -0.000584504)
(0.0161826 -0.228499 -0.95041)
(-0.0176341 -0.226206 -0.000541007)
(0.00998536 -0.218009 -0.989585)
(-0.0113346 -0.214278 -0.00227317)
(0.0100933 -0.219419 -0.992079)
(-0.0114954 -0.21434 -0.00222704)
(0.000430707 -0.224032 0.000295357)
(0.00111253 -0.22425 0.000331456)
(0.000346469 -0.224099 0.000301357)
(0.00107569 -0.224408 0.0003213)
(0.00380156 -0.21091 0.00149294)
(0.000537819 -0.213428 0.000417205)
(0.00369887 -0.210545 0.00150174)
(0.000541717 -0.213559 0.000407384)
(0.00086176 -0.22597 7.05712e-05)
(0.000861812 -0.22597 -7.03258e-05)
(0.000839262 -0.22634 6.50236e-05)
(0.000839372 -0.22634 -6.49456e-05)
(0.000368539 -0.216835 6.16401e-05)
(0.00036874 -0.216834 -6.1579e-05)
(0.000360507 -0.217324 5.68227e-05)
(0.000360846 -0.217324 -5.67824e-05)
(0.00111299 -0.224251 -0.000331247)
(0.000430488 -0.224034 -0.000294912)
(0.00107605 -0.224408 -0.000321581)
(0.00034466 -0.224098 -0.000302289)
(0.000538242 -0.213429 -0.000417496)
(0.00380213 -0.210916 -0.0014942)
(0.000541982 -0.213558 -0.000408026)
(0.00369785 -0.210546 -0.00150386)
(-0.0174971 -0.225844 0.000584066)
(0.0161245 -0.227575 0.954076)
(-0.0176341 -0.226203 0.000541453)
(0.0161868 -0.228507 0.954165)
(-0.0113551 -0.214292 0.00226886)
(0.0100066 -0.218006 0.991695)
(-0.0115342 -0.214341 0.00222768)
(0.0101312 -0.219396 0.992078)
(0.0160806 -0.225856 -0.950977)
(-0.017279 -0.224937 -0.000649004)
(0.0160989 -0.226712 -0.947227)
(-0.0173915 -0.225422 -0.000619952)
(0.00983175 -0.215604 -0.989122)
(-0.0110763 -0.213758 -0.00233362)
(0.00989449 -0.216795 -0.989449)
(-0.0111915 -0.214085 -0.00230746)
(0.000594218 -0.223652 0.000277466)
(0.00121403 -0.22379 0.000342899)
(0.000512069 -0.223884 0.000287584)
(0.00115892 -0.224046 0.000338619)
(0.00398168 -0.21124 0.00147036)
(0.000564098 -0.21309 0.000428571)
(0.00389588 -0.211142 0.00148135)
(0.000546491 -0.213277 0.000426747)
(0.000922732 -0.225171 7.85545e-05)
(0.000922827 -0.225171 -7.8567e-05)
(0.000888189 -0.225582 7.51179e-05)
(0.00088833 -0.225582 -7.49623e-05)
(0.000385644 -0.21584 6.8973e-05)
(0.000385708 -0.21584 -6.93391e-05)
(0.000375778 -0.216341 6.86493e-05)
(0.000375933 -0.216341 -6.88903e-05)
(0.00121544 -0.22379 -0.000342984)
(0.000598139 -0.223654 -0.000277351)
(0.0011599 -0.224046 -0.000338393)
(0.000513253 -0.223886 -0.000286513)
(0.000565083 -0.21309 -0.000429375)
(0.00398529 -0.211242 -0.00147144)
(0.000547184 -0.213276 -0.000427265)
(0.00389755 -0.211145 -0.00148237)
(-0.0172622 -0.224935 0.000649047)
(0.0160591 -0.225851 0.953524)
(-0.017385 -0.225424 0.000619416)
(0.0160921 -0.226717 0.953626)
(-0.0110922 -0.213764 0.00233472)
(0.00984597 -0.215605 0.988735)
(-0.011209 -0.214088 0.00230442)
(0.00991115 -0.216779 0.991601)
(0.016095 -0.22419 -0.952971)
(-0.0170756 -0.223806 -0.000694801)
(0.0160863 -0.225037 -0.953078)
(-0.0171828 -0.224412 -0.000673649)
(0.00976497 -0.21349 -0.988401)
(-0.010895 -0.212875 -0.00237748)
(0.00979651 -0.214572 -0.98898)
(-0.010986 -0.213364 -0.00235819)
(0.000761032 -0.222965 0.000258562)
(0.00134815 -0.223117 0.000347062)
(0.000675826 -0.223346 0.00026778)
(0.00127778 -0.223482 0.000345842)
(0.00412787 -0.211108 0.00144501)
(0.000621003 -0.212588 0.000434086)
(0.00405934 -0.211225 0.00145656)
(0.000589821 -0.212864 0.000434002)
(0.00101201 -0.224262 8.36429e-05)
(0.00101171 -0.224262 -8.36921e-05)
(0.00096316 -0.224733 8.15353e-05)
(0.000963092 -0.224733 -8.15417e-05)
(0.0004097 -0.214792 7.56397e-05)
(0.000409614 -0.214792 -7.56878e-05)
(0.000396058 -0.215326 7.45028e-05)
(0.00039614 -0.215326 -7.45164e-05)
(0.00134867 -0.223117 -0.000347137)
(0.000764948 -0.222966 -0.000257917)
(0.00127846 -0.223482 -0.00034591)
(0.000680482 -0.223348 -0.000267622)
(0.000621104 -0.212586 -0.000434593)
(0.00412666 -0.211104 -0.00144516)
(0.000590181 -0.212862 -0.00043393)
(0.00405973 -0.211223 -0.00145681)
(-0.0170629 -0.22381 0.000694511)
(0.0160772 -0.224191 0.952964)
(-0.0171503 -0.224404 0.000673661)
(0.0160447 -0.225043 0.953066)
(-0.0108996 -0.212871 0.00237727)
(0.00977092 -0.213516 0.98847)
(-0.0109887 -0.213357 0.00235718)
(0.0097933 -0.214578 0.988586)
(0.0161552 -0.222505 -0.95068)
(-0.0168794 -0.222501 -0.000726345)
(0.0161116 -0.223378 -0.952497)
(-0.0169705 -0.22318 -0.000712048)
(0.00969574 -0.211502 -0.988207)
(-0.0106963 -0.21171 -0.00240539)
(0.0097071 -0.212546 -0.98825)
(-0.0107742 -0.212336 -0.00239157)
(0.00094076 -0.222007 0.000240392)
(0.00150668 -0.22222 0.000346108)
(0.000848349 -0.22252 0.000249312)
(0.00142432 -0.222698 0.000347078)
(0.00426482 -0.21057 0.00142259)
(0.000695733 -0.211873 0.000432998)
(0.00420099 -0.210885 0.00143371)
(0.000656893 -0.212259 0.000434263)
(0.00113167 -0.223206 8.61931e-05)
(0.00113169 -0.223206 -8.64106e-05)
(0.00106789 -0.223755 8.51745e-05)
(0.00106792 -0.223754 -8.53119e-05)
(0.000444452 -0.213645 7.84344e-05)
(0.00044465 -0.213645 -7.89474e-05)
(0.000425602 -0.214234 7.74977e-05)
(0.000425764 -0.214233 -7.79065e-05)
(0.00150757 -0.22222 -0.000346308)
(0.000942373 -0.222008 -0.000240794)
(0.00142533 -0.222697 -0.000347202)
(0.00085101 -0.222519 -0.000249368)
(0.000696307 -0.211872 -0.000433784)
(0.00426353 -0.210565 -0.00142382)
(0.000657399 -0.212258 -0.000434972)
(0.00420007 -0.210877 -0.00143523)
(-0.0168931 -0.2225 0.000727234)
(0.01617 -0.222511 0.952365)
(-0.0169873 -0.223186 0.000712292)
(0.0161279 -0.223376 0.952486)
(-0.0107099 -0.211699 0.00240871)
(0.00971351 -0.211536 0.988334)
(-0.0107869 -0.212318 0.00239556)
(0.00972294 -0.212558 0.988317)
(0.0162609 -0.22074 -0.947842)
(-0.0166904 -0.221013 -0.000751596)
(0.0162107 -0.221652 -0.94622)
(-0.0167964 -0.221787 -0.000739187)
(0.00968124 -0.20954 -0.991646)
(-0.0105405 -0.210324 -0.00242457)
(0.00967547 -0.210579 -0.988048)
(-0.0106114 -0.211054 -0.00241831)
(0.00113637 -0.220793 0.000226184)
(0.00168877 -0.221087 0.000342729)
(0.00103685 -0.221433 0.000232619)
(0.00159526 -0.221684 0.000344525)
(0.00438492 -0.209685 0.00140057)
(0.00078221 -0.21092 0.000428781)
(0.00432761 -0.210173 0.00141187)
(0.000738185 -0.211428 0.00043139)
(0.00128212 -0.221973 8.72589e-05)
(0.00128176 -0.221973 -8.73926e-05)
(0.00120323 -0.222614 8.68642e-05)
(0.00120311 -0.222614 -8.70741e-05)
(0.000491023 -0.212358 7.96584e-05)
(0.000490697 -0.212357 -7.97501e-05)
(0.000466345 -0.213022 7.93388e-05)
(0.000466317 -0.213021 -7.94949e-05)
(0.00168757 -0.221086 -0.000342446)
(0.00113409 -0.220791 -0.000223711)
(0.00159524 -0.221684 -0.00034462)
(0.00103776 -0.221433 -0.000231642)
(0.000781191 -0.210919 -0.000428547)
(0.00438305 -0.209681 -0.00140021)
(0.00073762 -0.211427 -0.000431398)
(0.00432374 -0.210165 -0.0014116)
(-0.0166661 -0.221007 0.00074982)
(0.0162341 -0.220742 0.951776)
(-0.0167784 -0.221773 0.000739285)
(0.0161887 -0.221661 0.951873)
(-0.0105445 -0.210322 0.00242381)
(0.0096812 -0.209585 0.988223)
(-0.0106287 -0.211033 0.00241631)
(0.00968896 -0.21059 0.98818)
(0.0163875 -0.218856 -0.947176)
(-0.0164701 -0.21931 -0.000768639)
(0.0163148 -0.219831 -0.947285)
(-0.0165809 -0.220193 -0.000761434)
(0.00966113 -0.207543 -0.991548)
(-0.0103557 -0.208721 -0.00243599)
(0.00966475 -0.208618 -0.991558)
(-0.0104457 -0.209564 -0.00243136)
(0.00133849 -0.219324 0.000211865)
(0.00188812 -0.219707 0.000337315)
(0.00123604 -0.220092 0.00021958)
(0.00178609 -0.220429 0.000340363)
(0.00449384 -0.208479 0.00138103)
(0.000875403 -0.209711 0.000422772)
(0.00444058 -0.209122 0.00139046)
(0.000827836 -0.210348 0.000425993)
(0.00146141 -0.220535 8.71284e-05)
(0.00146109 -0.220535 -8.74691e-05)
(0.00136819 -0.221282 8.73501e-05)
(0.00136778 -0.221281 -8.75134e-05)
(0.00054921 -0.210894 7.9581e-05)
(0.0005488 -0.210894 -7.97876e-05)
(0.000518642 -0.21165 7.97367e-05)
(0.000518286 -0.21165 -7.99141e-05)
(0.00188671 -0.219707 -0.000337798)
(0.00133027 -0.219323 -0.000212633)
(0.00178428 -0.220428 -0.000340147)
(0.00122958 -0.22009 -0.00021787)
(0.000874719 -0.209711 -0.00042273)
(0.00449488 -0.208481 -0.00138094)
(0.000827057 -0.210347 -0.000425789)
(0.00444051 -0.209118 -0.00139033)
(-0.016482 -0.219314 0.000770039)
(0.0164048 -0.218847 0.943186)
(-0.0165751 -0.220198 0.000760086)
(0.0163095 -0.219829 0.947272)
(-0.0103631 -0.20873 0.0024417)
(0.00966871 -0.207563 0.98795)
(-0.0104533 -0.209553 0.00243368)
(0.00966737 -0.208614 0.988064)
(0.0165692 -0.216787 -0.95053)
(-0.0162469 -0.217432 -0.000781118)
(0.016471 -0.217867 -0.950633)
(-0.0163633 -0.218399 -0.000774576)
(0.00966192 -0.205454 -0.991451)
(-0.0101738 -0.206904 -0.0024423)
(0.00963361 -0.206574 -0.991459)
(-0.0102443 -0.20785 -0.00243898)
(0.00155197 -0.2176 0.000199429)
(0.00210845 -0.218069 0.000331298)
(0.00144418 -0.218496 0.000204989)
(0.00199581 -0.218922 0.000334246)
(0.00460507 -0.206975 0.00136352)
(0.000977529 -0.208234 0.000415736)
(0.00455109 -0.207766 0.00137207)
(0.000925761 -0.209007 0.000419286)
(0.00166975 -0.218866 8.63965e-05)
(0.00166948 -0.218867 -8.64695e-05)
(0.00156206 -0.219731 8.68266e-05)
(0.00156179 -0.219731 -8.70208e-05)
(0.000619565 -0.209223 7.8725e-05)
(0.000619193 -0.209223 -7.87853e-05)
(0.000582964 -0.210087 7.92259e-05)
(0.00058249 -0.210087 -7.92839e-05)
(0.00210797 -0.21807 -0.000331211)
(0.00154976 -0.217603 -0.000199526)
(0.00199479 -0.218922 -0.000334529)
(0.00143769 -0.218497 -0.000205779)
(0.000976888 -0.208236 -0.000415734)
(0.00460524 -0.206983 -0.00136368)
(0.000924622 -0.209008 -0.000419105)
(0.00455115 -0.207769 -0.0013718)
(-0.0162546 -0.217433 0.000781359)
(0.0165786 -0.216781 0.946478)
(-0.0163707 -0.218402 0.000775689)
(0.0164811 -0.217866 0.946536)
(-0.0101704 -0.206923 0.00244834)
(0.00966088 -0.205447 0.987892)
(-0.0102405 -0.207854 0.00244407)
(0.00962693 -0.206546 0.987789)
(0.016773 -0.21453 -0.949863)
(-0.0159886 -0.215305 -0.000791186)
(0.0166638 -0.215709 -0.949978)
(-0.016121 -0.216412 -0.000786561)
(0.00972691 -0.203184 -0.991348)
(-0.010018 -0.204878 -0.00244839)
(0.00968661 -0.204405 -0.991359)
(-0.0100968 -0.20593 -0.00244553)
(0.00177951 -0.215614 0.000190852)
(0.00234848 -0.216162 0.00032524)
(0.00166259 -0.216642 0.000195085)
(0.00222564 -0.217151 0.000328243)
(0.00471422 -0.205186 0.00134762)
(0.00108545 -0.206479 0.000408372)
(0.00465936 -0.206118 0.00135542)
(0.00103068 -0.207392 0.000412117)
(0.00190617 -0.216945 8.50546e-05)
(0.00190579 -0.216945 -8.55148e-05)
(0.00178445 -0.217938 8.57478e-05)
(0.00178415 -0.217939 -8.60369e-05)
(0.000701451 -0.207316 7.72323e-05)
(0.000701417 -0.207316 -7.75856e-05)
(0.000659105 -0.208301 7.80169e-05)
(0.000659002 -0.208301 -7.83331e-05)
(0.00234845 -0.216163 -0.000325523)
(0.00178223 -0.215617 -0.000190214)
(0.00222524 -0.217152 -0.000328421)
(0.00166233 -0.216644 -0.000195159)
(0.00108554 -0.206481 -0.000408535)
(0.00471329 -0.205194 -0.00134751)
(0.00103085 -0.207394 -0.000412406)
(0.0046598 -0.206125 -0.0013559)
(-0.0159872 -0.215295 0.000792365)
(0.0167685 -0.214529 0.947345)
(-0.0161321 -0.216406 0.000787355)
(0.0166739 -0.21571 0.945855)
(-0.0100084 -0.204889 0.00245388)
(0.00971427 -0.203158 0.988568)
(-0.0100923 -0.205938 0.00245318)
(0.00968425 -0.204366 0.987729)
(0.0169959 -0.212049 -0.941053)
(-0.0157096 -0.212936 -0.000800453)
(0.0168762 -0.213342 -0.945227)
(-0.0158516 -0.214155 -0.000795508)
(0.00975065 -0.200724 -0.988647)
(-0.00981384 -0.202614 -0.00245569)
(0.00971954 -0.20203 -0.991255)
(-0.00990274 -0.203787 -0.00245119)
(0.00203458 -0.213355 0.000183314)
(0.00261368 -0.213971 0.000319501)
(0.00190416 -0.214521 0.000186493)
(0.00247803 -0.215103 0.000322265)
(0.00482822 -0.203108 0.00133337)
(0.0012014 -0.204434 0.000400871)
(0.00477226 -0.204186 0.0013399)
(0.00114283 -0.205495 0.000404558)
(0.00217153 -0.214748 8.37511e-05)
(0.00217103 -0.214748 -8.38571e-05)
(0.00203533 -0.215882 8.44004e-05)
(0.00203485 -0.215882 -8.47651e-05)
(0.000795596 -0.205149 7.55447e-05)
(0.000795285 -0.205149 -7.55608e-05)
(0.000747074 -0.206267 7.64266e-05)
(0.000746935 -0.206267 -7.65823e-05)
(0.00261318 -0.213971 -0.000318937)
(0.00203712 -0.213354 -0.000180522)
(0.00247788 -0.215104 -0.000322254)
(0.00190763 -0.214523 -0.000184746)
(0.00119986 -0.204435 -0.000400257)
(0.00482284 -0.203113 -0.00133166)
(0.00114194 -0.205495 -0.000404336)
(0.00476823 -0.204191 -0.00133915)
(-0.0156871 -0.212941 0.000797979)
(0.0169722 -0.212044 0.949204)
(-0.015839 -0.214149 0.000795645)
(0.0168583 -0.213345 0.946752)
(-0.00981468 -0.202626 0.0024511)
(0.00974514 -0.200707 0.988829)
(-0.00989698 -0.20379 0.00245225)
(0.00970478 -0.202005 0.988426)
(0.017246 -0.209322 -0.947963)
(-0.0153879 -0.210274 -0.000803836)
(0.0171082 -0.210752 -0.943902)
(-0.0155509 -0.211651 -0.000802494)
(0.00981241 -0.198032 -0.988999)
(-0.0096208 -0.200109 -0.00245015)
(0.00977766 -0.19946 -0.9885)
(-0.0097234 -0.201401 -0.00245344)
(0.00230933 -0.210804 0.000175407)
(0.00290213 -0.211479 0.000313035)
(0.00216861 -0.212119 0.000179581)
(0.00275475 -0.212764 0.000316298)
(0.00494416 -0.200737 0.00131921)
(0.00132319 -0.202086 0.000392884)
(0.00488525 -0.201961 0.00132617)
(0.00126128 -0.203299 0.00039684)
(0.00246527 -0.212255 8.19971e-05)
(0.00246508 -0.212255 -8.21426e-05)
(0.00231486 -0.213539 8.29123e-05)
(0.00231452 -0.21354 -8.29715e-05)
(0.000901441 -0.202699 7.34649e-05)
(0.000901341 -0.202699 -7.34572e-05)
(0.000847097 -0.203961 7.44869e-05)
(0.000846848 -0.203961 -7.45665e-05)
(0.00290205 -0.211478 -0.000313038)
(0.00231022 -0.210801 -0.000175712)
(0.00275428 -0.212763 -0.000315854)
(0.00216979 -0.212116 -0.000178155)
(0.00132301 -0.202087 -0.000392517)
(0.00494232 -0.20074 -0.00131797)
(0.0012602 -0.2033 -0.00039645)
(0.00488109 -0.201964 -0.00132505)
(-0.0153819 -0.210288 0.000805849)
(0.0172427 -0.209313 0.940937)
(-0.0155408 -0.211663 0.000801681)
(0.0170995 -0.21073 0.944512)
(-0.00962502 -0.200118 0.00245121)
(0.00982065 -0.198019 0.991144)
(-0.00972655 -0.201409 0.00245276)
(0.00977748 -0.199444 0.988683)
(0.0175365 -0.206304 -0.946635)
(-0.0150489 -0.207364 -0.000807212)
(0.017383 -0.207879 -0.947937)
(-0.0152234 -0.208858 -0.000805883)
(0.00984386 -0.195107 -0.989218)
(-0.00937535 -0.197324 -0.00244743)
(0.00980162 -0.196632 -0.988864)
(-0.00947917 -0.19876 -0.00244885)
(0.00261224 -0.207948 0.000168586)
(0.00321702 -0.20867 0.000306878)
(0.00245761 -0.209416 0.000171752)
(0.00305641 -0.210115 0.000309947)
(0.00507299 -0.198059 0.00130656)
(0.00145475 -0.199421 0.000385456)
(0.00500976 -0.199439 0.00131296)
(0.00138819 -0.200794 0.000389053)
(0.00278697 -0.209446 8.01389e-05)
(0.00278682 -0.209446 -8.03715e-05)
(0.00262289 -0.210891 8.10925e-05)
(0.0026227 -0.210891 -8.1257e-05)
(0.00101844 -0.199946 7.12838e-05)
(0.00101856 -0.199946 -7.13047e-05)
(0.000958822 -0.201362 7.243e-05)
(0.000958846 -0.201362 -7.23349e-05)
(0.00321725 -0.20867 -0.00030706)
(0.00261506 -0.207947 -0.000169075)
(0.00305678 -0.210115 -0.000310017)
(0.00246024 -0.209415 -0.000172254)
(0.00145492 -0.19942 -0.000384917)
(0.00507212 -0.198059 -0.00130626)
(0.00138855 -0.200794 -0.000388827)
(0.00500941 -0.19944 -0.00131189)
(-0.0150427 -0.207366 0.0008082)
(0.0175297 -0.20631 0.947814)
(-0.0152166 -0.208871 0.000807006)
(0.0173756 -0.20787 0.944376)
(-0.00939485 -0.197327 0.00244662)
(0.00987127 -0.195104 0.991048)
(-0.00948307 -0.198761 0.002449)
(0.00981027 -0.196621 0.991052)
(0.0178638 -0.202994 -0.942963)
(-0.0146784 -0.204134 -0.000810136)
(0.0176868 -0.204707 -0.941877)
(-0.0148661 -0.205798 -0.000808272)
(0.00993158 -0.1919 -0.98973)
(-0.00915513 -0.194246 -0.00244354)
(0.00987135 -0.193561 -0.989081)
(-0.0092609 -0.195825 -0.00244502)
(0.00293908 -0.204772 0.000164375)
(0.0035567 -0.205532 0.00030161)
(0.00277214 -0.206403 0.000165841)
(0.00338354 -0.207143 0.000303872)
(0.00520538 -0.195062 0.00129469)
(0.00159391 -0.196425 0.000378569)
(0.00513944 -0.196601 0.00130055)
(0.00152339 -0.197965 0.000380992)
(0.00313519 -0.206303 7.84363e-05)
(0.00313518 -0.206303 -7.86423e-05)
(0.00295798 -0.207917 7.91888e-05)
(0.00295754 -0.207917 -7.95279e-05)
(0.00114452 -0.196873 6.90218e-05)
(0.00114466 -0.196872 -6.9213e-05)
(0.00108063 -0.198451 7.00596e-05)
(0.00108044 -0.19845 -7.02766e-05)
(0.00355639 -0.205531 -0.00030164)
(0.00294078 -0.204772 -0.000164494)
(0.00338383 -0.207142 -0.00030431)
(0.0027751 -0.2064 -0.000166734)
(0.00159358 -0.196424 -0.000377371)
(0.00520606 -0.19506 -0.001295)
(0.00152353 -0.197964 -0.000381878)
(0.00513996 -0.1966 -0.00130004)
(-0.0146732 -0.204135 0.000810949)
(0.0178605 -0.202996 0.947092)
(-0.0148575 -0.205785 0.00080982)
(0.0176815 -0.204703 0.947206)
(-0.00914639 -0.194241 0.0024424)
(0.00993467 -0.191912 0.990945)
(-0.0092601 -0.195826 0.00244462)
(0.00988058 -0.193562 0.99095)
(0.0182257 -0.199359 -0.946352)
(-0.0142728 -0.200581 -0.000811919)
(0.0180404 -0.201237 -0.946472)
(-0.014484 -0.202406 -0.000811255)
(0.0100366 -0.188392 -0.99084)
(-0.00892635 -0.190854 -0.00243781)
(0.00995232 -0.190196 -0.989604)
(-0.00901512 -0.192591 -0.00244125)
(0.00329296 -0.201265 0.000161124)
(0.00392185 -0.202049 0.000296658)
(0.00311213 -0.203062 0.000163437)
(0.00373574 -0.203834 0.000299168)
(0.00534191 -0.191741 0.00128398)
(0.00174048 -0.193089 0.000371991)
(0.00527516 -0.193443 0.00129049)
(0.00166609 -0.1948 0.000373813)
(0.00350969 -0.202812 7.67525e-05)
(0.00350983 -0.202812 -7.68375e-05)
(0.00331964 -0.204602 7.7612e-05)
(0.00331906 -0.204602 -7.77733e-05)
(0.00127918 -0.193462 6.68264e-05)
(0.00127957 -0.193461 -6.68566e-05)
(0.00121119 -0.19521 6.79583e-05)
(0.00121081 -0.19521 -6.81345e-05)
(0.00392108 -0.202047 -0.00029646)
(0.00329227 -0.201261 -0.000160335)
(0.00373588 -0.203833 -0.000299123)
(0.00311243 -0.203061 -0.000162227)
(0.00174017 -0.193088 -0.000369916)
(0.00534114 -0.191738 -0.00128464)
(0.00166659 -0.194799 -0.000375293)
(0.00527424 -0.19344 -0.00128886)
(-0.0142741 -0.200574 0.000811788)
(0.0182286 -0.199359 0.946345)
(-0.0144823 -0.202405 0.000811422)
(0.0180404 -0.201236 0.946465)
(-0.00893271 -0.190853 0.00243765)
(0.0100518 -0.188396 0.990838)
(-0.00903981 -0.192587 0.00244068)
(0.00998524 -0.19021 0.990843)
(0.0185958 -0.195382 -0.943285)
(-0.0138173 -0.196678 -0.000810808)
(0.018406 -0.197433 -0.945706)
(-0.0140525 -0.198675 -0.000810902)
(0.0101472 -0.184547 -0.99073)
(-0.00869484 -0.187152 -0.00242992)
(0.0100805 -0.186517 -0.990734)
(-0.00880566 -0.189044 -0.00243334)