/*--------------------------------*- C++ -*----------------------------------*\
  =========                 |
  \\      /  F ield         | OpenFOAM: The Open Source CFD Toolbox
   \\    /   O peration     | Website:  https://openfoam.org
    \\  /    A nd           | Version:  9
     \\/     M anipulation  |
\*---------------------------------------------------------------------------*/
FoamFile
{
    format      ascii;
    class       surfaceScalarField;
    location    "1";
    object      phi;
}
// * * * * * * * * * * * * * * * * * * * * * * * * * * * * * * * * * * * * * //

dimensions      [0 3 -1 0 0 0 0];

internalField   nonuniform List<scalar> 
104044
(
-1.25582e-11
-1.00921e-05
-1.08589e-09
1.00897e-05
3.47021e-09
-1.00921e-05
-1.07542e-09
-2.26325e-13
1.00897e-05
3.45676e-09
1.36425e-11
-1.65883e-09
4.27458e-09
-1.67439e-09
8.44186e-13
4.28582e-09
-8.75052e-12
-3.51409e-06
3.51301e-06
-3.51411e-06
-5.29025e-13
3.51303e-06
1.30162e-11
9.83158e-13
2.05055e-13
-1.00921e-05
-1.07334e-09
1.00897e-05
3.45446e-09
-1.00921e-05
-1.0734e-09
5.16096e-14
1.00897e-05
3.45449e-09
-8.06527e-14
-1.6764e-09
4.29108e-09
-1.67692e-09
-3.32434e-14
4.2926e-09
6.86761e-14
-3.5141e-06
3.51303e-06
-3.5141e-06
6.02294e-14
3.51303e-06
-2.10988e-14
-2.19453e-14
4.95262e-15
-1.00921e-05
-1.07358e-09
1.00897e-05
3.4548e-09
-1.00921e-05
-1.07364e-09
-4.26062e-14
1.00897e-05
3.45497e-09
9.6354e-15
-1.67711e-09
4.29316e-09
-1.67719e-09
5.27878e-14
4.29337e-09
1.04681e-14
-3.5141e-06
3.51303e-06
-3.5141e-06
-3.52059e-14
3.51303e-06
1.16068e-14
4.55672e-14
-1.81502e-13
-1.00921e-05
-1.07357e-09
1.00897e-05
3.45498e-09
-1.00921e-05
-1.07359e-09
2.39202e-13
1.00897e-05
3.45523e-09
9.5311e-14
-1.67717e-09
4.2932e-09
-1.67677e-09
-8.32484e-13
4.292e-09
-5.41542e-14
-3.5141e-06
3.51303e-06
-3.5141e-06
5.44419e-13
3.51303e-06
3.7523e-14
-9.70784e-13
1.25648e-11
-1.00921e-05
-1.07574e-09
1.00897e-05
3.45773e-09
-1.00921e-05
-1.08626e-09
1.00897e-05
3.47128e-09
-1.364e-11
-1.67487e-09
4.28699e-09
-1.65935e-09
4.27589e-09
8.75909e-12
-3.51411e-06
3.51303e-06
-3.51409e-06
3.51302e-06
-1.3012e-11
-2.36687e-12
-1.00876e-05
-7.37249e-10
1.00855e-05
2.85074e-09
-1.00876e-05
-7.38574e-10
-4.7062e-13
1.00855e-05
2.85068e-09
-3.84996e-12
-8.21641e-10
2.96487e-09
-8.23462e-10
4.26975e-13
2.96373e-09
-1.284e-12
-3.5122e-06
3.51146e-06
-3.5122e-06
-5.06493e-13
3.51146e-06
-2.87473e-12
6.45493e-14
-4.84819e-14
-1.00876e-05
-7.38419e-10
1.00855e-05
2.85132e-09
-1.00876e-05
-7.38735e-10
-1.21656e-14
1.00855e-05
2.85178e-09
4.51608e-13
-8.24799e-10
2.96545e-09
-8.25872e-10
9.31513e-14
2.96669e-09
-8.55246e-14
-3.5122e-06
3.51146e-06
-3.5122e-06
-1.08645e-14
3.51146e-06
3.27985e-13
8.52309e-14
6.27762e-15
-1.00876e-05
-7.38878e-10
1.00855e-05
2.85205e-09
-1.00876e-05
-7.38913e-10
2.66799e-14
1.00855e-05
2.85216e-09
5.95839e-15
-8.26284e-10
2.96728e-09
-8.26326e-10
-8.27403e-14
2.96742e-09
6.90649e-15
-3.5122e-06
3.51146e-06
-3.5122e-06
2.43178e-14
3.51146e-06
7.27721e-15
-7.09812e-14
6.08011e-14
-1.00876e-05
-7.38831e-10
1.00855e-05
2.85211e-09
-1.00876e-05
-7.38572e-10
4.83015e-13
1.00855e-05
2.85184e-09
-4.34556e-13
-8.25997e-10
2.96709e-09
-8.24997e-10
-4.1421e-13
2.96608e-09
1.00523e-13
-3.5122e-06
3.51146e-06
-3.5122e-06
5.31259e-13
3.51146e-06
-3.0246e-13
-5.13312e-14
2.36962e-12
-1.00876e-05
-7.38774e-10
1.00855e-05
2.85133e-09
-1.00876e-05
-7.37479e-10
1.00855e-05
2.85145e-09
3.85624e-12
-8.23713e-10
2.96452e-09
-8.21932e-10
2.96574e-09
1.29168e-12
-3.5122e-06
3.51146e-06
-3.5122e-06
3.51146e-06
2.88364e-12
-1.86824e-12
-1.00833e-05
-8.148e-10
1.00808e-05
3.31101e-09
-1.00833e-05
-8.15538e-10
-6.52386e-13
1.00808e-05
3.31046e-09
-2.17257e-12
-7.321e-10
2.94037e-09
-7.32582e-10
-6.27443e-13
2.93978e-09
-6.21157e-13
-3.51073e-06
3.50991e-06
-3.51073e-06
-1.01923e-12
3.50992e-06
-9.83736e-13
-9.31033e-13
-3.333e-13
-1.00833e-05
-8.14651e-10
1.00808e-05
3.31071e-09
-1.00833e-05
-8.14772e-10
-1.48962e-13
1.00808e-05
3.31073e-09
-1.97171e-13
-7.31794e-10
2.93995e-09
-7.31984e-10
-6.77757e-14
2.94011e-09
-4.21118e-13
-3.51073e-06
3.50992e-06
-3.51073e-06
-1.51486e-13
3.50991e-06
-2.47914e-13
-7.29694e-14
6.43326e-15
-1.00833e-05
-8.14859e-10
1.00808e-05
3.31082e-09
-1.00833e-05
-8.14876e-10
1.59986e-13
1.00808e-05
3.31088e-09
6.08635e-15
-7.32091e-10
2.94027e-09
-7.32116e-10
7.86706e-14
2.94035e-09
6.95215e-15
-3.51073e-06
3.50991e-06
-3.51073e-06
1.64816e-13
3.50991e-06
6.69426e-15
8.50369e-14
3.44609e-13
-1.00833e-05
-8.1482e-10
1.00808e-05
3.31092e-09
-1.00833e-05
-8.14729e-10
6.64432e-13
1.00808e-05
3.311e-09
2.05947e-13
-7.32055e-10
2.94036e-09
-7.31906e-10
6.37869e-13
2.94034e-09
4.3635e-13
-3.51073e-06
3.50991e-06
-3.51073e-06
1.03482e-12
3.50992e-06
2.60027e-13
9.41741e-13
1.8817e-12
-1.00833e-05
-8.15641e-10
1.00808e-05
3.31084e-09
-1.00833e-05
-8.1493e-10
1.00808e-05
3.31141e-09
2.1814e-12
-7.32731e-10
2.94029e-09
-7.32283e-10
2.94092e-09
6.3367e-13
-3.51073e-06
3.50992e-06
-3.51073e-06
3.50991e-06
9.95425e-13
-1.75547e-12
-1.00779e-05
-1.11913e-09
1.00745e-05
4.51174e-09
-1.00779e-05
-1.1204e-09
-7.23513e-13
1.00745e-05
4.51109e-09
-1.72139e-12
-9.36399e-10
3.79789e-09
-9.37402e-10
-6.83577e-13
3.79735e-09
-1.27866e-13
-3.50898e-06
3.50786e-06
-3.50898e-06
-1.16567e-12
3.50786e-06
-3.39218e-13
-1.08403e-12
-7.00889e-13
-1.00779e-05
-1.11923e-09
1.00745e-05
4.51139e-09
-1.00779e-05
-1.11919e-09
-3.99749e-13
1.00745e-05
4.5112e-09
-4.94921e-13
-9.36395e-10
3.79762e-09
-9.36404e-10
-2.63294e-13
3.79754e-09
-8.13942e-13
-3.50898e-06
3.50786e-06
-3.50898e-06
-3.85813e-13
3.50786e-06
-6.45515e-13
-2.56261e-13
1.02297e-14
-1.00779e-05
-1.11921e-09
1.00745e-05
4.51114e-09
-1.00779e-05
-1.11922e-09
4.15978e-13
1.00745e-05
4.51116e-09
7.65088e-15
-9.36463e-10
3.79753e-09
-9.36474e-10
2.80995e-13
3.79757e-09
1.02719e-14
-3.50898e-06
3.50786e-06
-3.50898e-06
4.04301e-13
3.50786e-06
7.4187e-15
2.68877e-13
7.08097e-13
-1.00779e-05
-1.11921e-09
1.00745e-05
4.51128e-09
-1.00779e-05
-1.11926e-09
7.26415e-13
1.00745e-05
4.51151e-09
5.05935e-13
-9.36432e-10
3.79766e-09
-9.3644e-10
6.89953e-13
3.79781e-09
8.22566e-13
-3.50898e-06
3.50786e-06
-3.50898e-06
1.16552e-12
3.50786e-06
6.57305e-13
1.09146e-12
1.78346e-12
-1.00779e-05
-1.12044e-09
1.00745e-05
4.51125e-09
-1.00779e-05
-1.11919e-09
1.00745e-05
4.5119e-09
1.73546e-12
-9.37461e-10
3.7976e-09
-9.36492e-10
3.79815e-09
1.41921e-13
-3.50898e-06
3.50786e-06
-3.50898e-06
3.50786e-06
3.42406e-13
-2.03964e-12
-1.00706e-05
-1.5611e-09
1.00659e-05
6.21598e-09
-1.00706e-05
-1.563e-09
-7.91221e-13
1.00659e-05
6.21513e-09
-1.84756e-12
-1.31333e-09
5.25892e-09
-1.31489e-09
-7.45531e-13
5.25822e-09
1.98931e-13
-3.50655e-06
3.50498e-06
-3.50655e-06
-1.31959e-12
3.50498e-06
3.99875e-14
-1.22134e-12
-9.5403e-13
-1.00706e-05
-1.56148e-09
1.00659e-05
6.21553e-09
-1.00706e-05
-1.56137e-09
-5.96777e-13
1.00659e-05
6.2152e-09
-8.27149e-13
-1.31357e-09
5.25857e-09
-1.3135e-09
-4.98483e-13
5.25831e-09
-1.07476e-12
-3.50655e-06
3.50498e-06
-3.50654e-06
-5.81397e-13
3.50498e-06
-9.38653e-13
-4.85157e-13
1.34469e-14
-1.00706e-05
-1.56132e-09
1.00659e-05
6.21503e-09
-1.00706e-05
-1.56133e-09
6.19556e-13
1.00659e-05
6.21504e-09
1.11118e-14
-1.31348e-09
5.25819e-09
-1.31348e-09
5.1683e-13
5.2582e-09
1.32344e-14
-3.50654e-06
3.50498e-06
-3.50654e-06
6.03981e-13
3.50498e-06
1.08737e-14
5.04011e-13
9.66492e-13
-1.00706e-05
-1.56138e-09
1.00659e-05
6.21522e-09
-1.00706e-05
-1.56149e-09
7.95476e-13
1.00659e-05
6.21557e-09
8.3597e-13
-1.3135e-09
5.25835e-09
-1.31358e-09
7.47994e-13
5.25864e-09
1.08786e-12
-3.50654e-06
3.50498e-06
-3.50655e-06
1.32304e-12
3.50498e-06
9.49226e-13
1.22264e-12
2.06336e-12
-1.00706e-05
-1.56301e-09
1.00659e-05
6.21518e-09
-1.00706e-05
-1.56114e-09
1.00659e-05
6.21601e-09
1.86091e-12
-1.3149e-09
5.25831e-09
-1.31338e-09
5.259e-09
-1.87178e-13
-3.50655e-06
3.50498e-06
-3.50655e-06
3.50498e-06
-4.39359e-14
-2.52363e-12
-1.00606e-05
-2.10285e-09
1.00544e-05
8.30547e-09
-1.00606e-05
-2.10544e-09
-9.01826e-13
1.00544e-05
8.30435e-09
-2.24248e-12
-1.80244e-09
7.14356e-09
-1.80465e-09
-8.3355e-13
7.14262e-09
4.74685e-13
-3.50318e-06
3.50108e-06
-3.50318e-06
-1.53152e-12
3.50108e-06
3.30145e-13
-1.40307e-12
-1.18572e-12
-1.00606e-05
-2.1035e-09
1.00544e-05
8.30486e-09
-1.00606e-05
-2.10333e-09
-7.74922e-13
1.00544e-05
8.30441e-09
-1.05825e-12
-1.80294e-09
7.14308e-09
-1.80281e-09
-6.78879e-13
7.14269e-09
-1.33161e-12
-3.50318e-06
3.50108e-06
-3.50318e-06
-7.56556e-13
3.50107e-06
-1.1885e-12
-6.62687e-13
1.53513e-14
-1.00606e-05
-2.10324e-09
1.00544e-05
8.30415e-09
-1.00606e-05
-2.10325e-09
8.02119e-13
1.00544e-05
8.30416e-09
1.42057e-14
-1.80274e-09
7.14248e-09
-1.80274e-09
7.03938e-13
7.14249e-09
1.41393e-14
-3.50318e-06
3.50107e-06
-3.50318e-06
7.82287e-13
3.50107e-06
1.32507e-14
6.86369e-13
1.20421e-12
-1.00606e-05
-2.10334e-09
1.00544e-05
8.30442e-09
-1.00606e-05
-2.10351e-09
9.10381e-13
1.00544e-05
8.30488e-09
1.0733e-12
-1.80282e-09
7.14271e-09
-1.80296e-09
8.37623e-13
7.14311e-09
1.35144e-12
-3.50318e-06
3.50107e-06
-3.50318e-06
1.54656e-12
3.50108e-06
1.20506e-12
1.41119e-12
2.54752e-12
-1.00606e-05
-2.10547e-09
1.00544e-05
8.30437e-09
-1.00606e-05
-2.10291e-09
1.00544e-05
8.30547e-09
2.25545e-12
-1.80466e-09
7.14266e-09
-1.80249e-09
7.14357e-09
-4.59123e-13
-3.50318e-06
3.50108e-06
-3.50318e-06
3.50108e-06
-3.30348e-13
-3.13665e-12
-1.00474e-05
-2.73559e-09
1.00394e-05
1.07509e-08
-1.00474e-05
-2.73895e-09
-1.05022e-12
1.00394e-05
1.07494e-08
-2.78253e-12
-2.38295e-09
9.38487e-09
-2.38588e-09
-9.64073e-13
9.38366e-09
7.45815e-13
-3.49869e-06
3.49596e-06
-3.49869e-06
-1.80091e-12
3.49596e-06
6.0076e-13
-1.64487e-12
-1.43189e-12
-1.00474e-05
-2.73651e-09
1.00394e-05
1.07501e-08
-1.00474e-05
-2.73628e-09
-9.56809e-13
1.00394e-05
1.07495e-08
-1.29351e-12
-2.38372e-09
9.38423e-09
-2.38353e-09
-8.55252e-13
9.38372e-09
-1.61125e-12
-3.49869e-06
3.49596e-06
-3.49869e-06
-9.34774e-13
3.49595e-06
-1.45316e-12
-8.35952e-13
1.38009e-14
-1.00474e-05
-2.73615e-09
1.00394e-05
1.07491e-08
-1.00474e-05
-2.73616e-09
9.81504e-13
1.00394e-05
1.07491e-08
1.45953e-14
-2.38342e-09
9.38343e-09
-2.38343e-09
8.8194e-13
9.38343e-09
1.24685e-14
-3.49869e-06
3.49595e-06
-3.49869e-06
9.58063e-13
3.49595e-06
1.31757e-14
8.60629e-13
1.44993e-12
-1.00474e-05
-2.73628e-09
1.00394e-05
1.07495e-08
-1.00474e-05
-2.73651e-09
1.06074e-12
1.00394e-05
1.07501e-08
1.31113e-12
-2.38354e-09
9.38373e-09
-2.38373e-09
9.69796e-13
9.38424e-09
1.63184e-12
-3.49869e-06
3.49595e-06
-3.49869e-06
1.82213e-12
3.49596e-06
1.47316e-12
1.65811e-12
3.15926e-12
-1.00474e-05
-2.73897e-09
1.00394e-05
1.07494e-08
-1.00474e-05
-2.73563e-09
1.00394e-05
1.07509e-08
2.80045e-12
-2.3859e-09
9.38368e-09
-2.38301e-09
9.38486e-09
-7.2786e-13
-3.49869e-06
3.49596e-06
-3.49869e-06
3.49596e-06
-5.94109e-13
-3.87501e-12
-1.00304e-05
-3.47151e-09
1.00203e-05
1.35973e-08
-1.00304e-05
-3.47575e-09
-1.23214e-12
1.00203e-05
1.35954e-08
-3.45539e-12
-3.05975e-09
1.2002e-08
-3.06349e-09
-1.1282e-12
1.20005e-08
1.02998e-12
-3.4929e-06
3.48942e-06
-3.4929e-06
-2.1249e-12
3.48942e-06
8.7374e-13
-1.9407e-12
-1.70109e-12
-1.00304e-05
-3.47272e-09
1.00203e-05
1.35962e-08
-1.00304e-05
-3.47244e-09
-1.15009e-12
1.00203e-05
1.35955e-08
-1.54834e-12
-3.06079e-09
1.20012e-08
-3.06054e-09
-1.03998e-12
1.20006e-08
-1.92092e-12
-3.49289e-06
3.48942e-06
-3.49289e-06
-1.12401e-12
3.48942e-06
-1.74437e-12
-1.01684e-12
1.10392e-14
-1.00304e-05
-3.47228e-09
1.00203e-05
1.35951e-08
-1.00304e-05
-3.47228e-09
1.16885e-12
1.00203e-05
1.35951e-08
1.23071e-14
-3.0604e-09
1.20002e-08
-3.0604e-09
1.06209e-12
1.20002e-08
9.74033e-15
-3.49289e-06
3.48942e-06
-3.49289e-06
1.14178e-12
3.48942e-06
1.09092e-14
1.03733e-12
1.71421e-12
-1.00304e-05
-3.47244e-09
1.00203e-05
1.35955e-08
-1.00304e-05
-3.47272e-09
1.24073e-12
1.00203e-05
1.35962e-08
1.56185e-12
-3.06055e-09
1.20006e-08
-3.06079e-09
1.13365e-12
1.20012e-08
1.93596e-12
-3.49289e-06
3.48942e-06
-3.49289e-06
2.14119e-12
3.48942e-06
1.76169e-12
1.95292e-12
3.89734e-12
-1.00304e-05
-3.47577e-09
1.00203e-05
1.35954e-08
-1.00304e-05
-3.47156e-09
1.00203e-05
1.35972e-08
3.47044e-12
-3.06351e-09
1.20005e-08
-3.0598e-09
1.2002e-08
-1.01268e-12
-3.4929e-06
3.48942e-06
-3.4929e-06
3.48942e-06
-8.65029e-13
-4.7214e-12
-1.00091e-05
-4.32686e-09
9.99655e-06
1.69031e-08
-1.00091e-05
-4.33212e-09
-1.45035e-12
9.99654e-06
1.69009e-08
-4.2388e-12
-3.84447e-09
1.50361e-08
-3.84915e-09
-1.32474e-12
1.50341e-08
1.35178e-12
-3.48558e-06
3.48125e-06
-3.48558e-06
-2.50974e-12
3.48125e-06
1.16739e-12
-2.28751e-12
-2.00334e-12
-1.00091e-05
-4.3284e-09
9.99654e-06
1.69017e-08
-1.00091e-05
-4.32806e-09
-1.36068e-12
9.99653e-06
1.69009e-08
-1.82941e-12
-3.84581e-09
1.5035e-08
-3.8455e-09
-1.23951e-12
1.50342e-08
-2.27092e-12
-3.48557e-06
3.48125e-06
-3.48557e-06
-1.33043e-12
3.48124e-06
-2.069e-12
-1.21239e-12
7.78845e-15
-1.00091e-05
-4.32787e-09
9.99653e-06
1.69004e-08
-1.00091e-05
-4.32787e-09
1.37059e-12
9.99653e-06
1.69004e-08
8.77883e-15
-3.84533e-09
1.50337e-08
-3.84533e-09
1.25415e-12
1.50337e-08
6.7397e-15
-3.48557e-06
3.48124e-06
-3.48557e-06
1.34059e-12
3.48124e-06
7.48667e-15
1.22595e-12
2.00551e-12
-1.00091e-05
-4.32806e-09
9.99653e-06
1.69009e-08
-1.00091e-05
-4.3284e-09
1.45221e-12
9.99654e-06
1.69017e-08
1.83658e-12
-3.8455e-09
1.50342e-08
-3.84581e-09
1.32625e-12
1.5035e-08
2.27328e-12
-3.48557e-06
3.48124e-06
-3.48558e-06
2.50682e-12
3.48125e-06
2.07766e-12
2.28979e-12
4.76183e-12
-1.00091e-05
-4.33212e-09
9.99654e-06
1.69008e-08
-1.00091e-05
-4.32692e-09
9.99655e-06
1.69031e-08
4.2576e-12
-3.84915e-09
1.50341e-08
-3.84453e-09
1.5036e-08
-1.3303e-12
-3.48558e-06
3.48125e-06
-3.48558e-06
3.48125e-06
-1.16655e-12
-5.74779e-12
-9.98273e-06
-5.32639e-09
9.96731e-06
2.07608e-08
-9.98273e-06
-5.3328e-09
-1.70754e-12
9.9673e-06
2.0758e-08
-5.16735e-12
-4.76238e-09
1.85812e-08
-4.76812e-09
-1.55916e-12
1.85788e-08
1.69274e-12
-3.47649e-06
3.47116e-06
-3.47648e-06
-2.95893e-12
3.47116e-06
1.4922e-12
-2.69766e-12
-2.34311e-12
-9.98272e-06
-5.32828e-09
9.96729e-06
2.07591e-08
-9.98271e-06
-5.32787e-09
-1.59437e-12
9.96728e-06
2.0758e-08
-2.147e-12
-4.76405e-09
1.85798e-08
-4.76368e-09
-1.45967e-12
1.85788e-08
-2.66667e-12
-3.47648e-06
3.47115e-06
-3.47648e-06
-1.55955e-12
3.47115e-06
-2.43767e-12
-1.42807e-12
6.00464e-15
-9.98271e-06
-5.32765e-09
9.96728e-06
2.07574e-08
-9.98271e-06
-5.32765e-09
1.60093e-12
9.96728e-06
2.07574e-08
5.62901e-15
-4.76347e-09
1.85783e-08
-4.76347e-09
1.46631e-12
1.85783e-08
5.07866e-15
-3.47647e-06
3.47115e-06
-3.47648e-06
1.56676e-12
3.47115e-06
4.88177e-15
1.43493e-12
2.34189e-12
-9.98271e-06
-5.32787e-09
9.96728e-06
2.0758e-08
-9.98272e-06
-5.32827e-09
1.70687e-12
9.96729e-06
2.0759e-08
2.14544e-12
-4.76367e-09
1.85788e-08
-4.76404e-09
1.55653e-12
1.85798e-08
2.66527e-12
-3.47648e-06
3.47115e-06
-3.47648e-06
2.95095e-12
3.47115e-06
2.43724e-12
2.68879e-12
5.78814e-12
-9.98273e-06
-5.3328e-09
9.9673e-06
2.0758e-08
-9.98274e-06
-5.32645e-09
9.96731e-06
2.07608e-08
5.18892e-12
-4.76811e-09
1.85788e-08
-4.76244e-09
1.85812e-08
-1.67219e-12
-3.47649e-06
3.47116e-06
-3.47649e-06
3.47116e-06
-1.49832e-12
-6.9597e-12
-9.95045e-06
-6.49111e-09
9.9317e-06
2.52486e-08
-9.95044e-06
-6.49883e-09
-2.01185e-12
9.93169e-06
2.52452e-08
-6.27196e-12
-5.82937e-09
2.26954e-08
-5.83632e-09
-1.83651e-12
2.26925e-08
2.06242e-12
-3.46533e-06
3.45883e-06
-3.46532e-06
-3.48513e-12
3.45883e-06
1.84193e-12
-3.17906e-12
-2.73238e-12
-9.95043e-06
-6.49339e-09
9.93168e-06
2.52464e-08
-9.95042e-06
-6.4929e-09
-1.85757e-12
9.93167e-06
2.52452e-08
-2.50524e-12
-5.8314e-09
2.26936e-08
-5.83096e-09
-1.70352e-12
2.26925e-08
-3.12258e-12
-3.46532e-06
3.45883e-06
-3.46532e-06
-1.81882e-12
3.45882e-06
-2.85662e-12
-1.66826e-12
8.53738e-15
-9.95041e-06
-6.49265e-09
9.93166e-06
2.52445e-08
-9.95041e-06
-6.49265e-09
1.86946e-12
9.93166e-06
2.52445e-08
6.05431e-15
-5.83072e-09
2.26918e-08
-5.83073e-09
1.71194e-12
2.26918e-08
6.78999e-15
-3.46531e-06
3.45882e-06
-3.46531e-06
1.82959e-12
3.45882e-06
4.82046e-15
1.67563e-12
2.73599e-12
-9.95042e-06
-6.4929e-09
9.93167e-06
2.52452e-08
-9.95043e-06
-6.49339e-09
2.0148e-12
9.93168e-06
2.52464e-08
2.50544e-12
-5.83096e-09
2.26925e-08
-5.8314e-09
1.83444e-12
2.26936e-08
3.12669e-12
-3.46532e-06
3.45882e-06
-3.46532e-06
3.48595e-12
3.45883e-06
2.85794e-12
3.17254e-12
6.99704e-12
-9.95044e-06
-6.49884e-09
9.93169e-06
2.52452e-08
-9.95045e-06
-6.49116e-09
9.9317e-06
2.52486e-08
6.29184e-12
-5.83632e-09
2.26924e-08
-5.82944e-09
2.26954e-08
-2.04237e-12
-3.46533e-06
3.45883e-06
-3.46533e-06
3.45883e-06
-1.84755e-12
-8.34974e-12
-9.91128e-06
-7.84411e-09
9.88868e-06
3.04533e-08
-9.91127e-06
-7.85334e-09
-2.35701e-12
9.88867e-06
3.04492e-08
-7.5622e-12
-7.07581e-09
2.74939e-08
-7.08414e-09
-2.15972e-12
2.74902e-08
2.49628e-12
-3.45175e-06
3.44391e-06
-3.45175e-06
-4.08703e-12
3.44391e-06
2.23932e-12
-3.74223e-12
-3.17653e-12
-9.91126e-06
-7.84683e-09
9.88866e-06
3.04506e-08
-9.91125e-06
-7.84625e-09
-2.15765e-12
9.88865e-06
3.04491e-08
-2.91996e-12
-7.07824e-09
2.74915e-08
-7.07771e-09
-1.98319e-12
2.74903e-08
-3.64268e-12
-3.45175e-06
3.4439e-06
-3.45174e-06
-2.11252e-12
3.44389e-06
-3.34206e-12
-1.94302e-12
1.11073e-14
-9.91125e-06
-7.84596e-09
9.88864e-06
3.04483e-08
-9.91125e-06
-7.84596e-09
2.17465e-12
9.88864e-06
3.04483e-08
9.17571e-15
-7.07744e-09
2.74895e-08
-7.07745e-09
1.99788e-12
2.74895e-08
9.60265e-15
-3.45174e-06
3.44389e-06
-3.45174e-06
2.12877e-12
3.44389e-06
7.15839e-15
1.9557e-12
3.18425e-12
-9.91125e-06
-7.84625e-09
9.88865e-06
3.04491e-08
-9.91126e-06
-7.84683e-09
2.3628e-12
9.88866e-06
3.04506e-08
2.9255e-12
-7.07771e-09
2.74902e-08
-7.07823e-09
2.16189e-12
2.74915e-08
3.6519e-12
-3.45174e-06
3.44389e-06
-3.45175e-06
4.09542e-12
3.4439e-06
3.34951e-12
3.74308e-12
8.38426e-12
-9.91127e-06
-7.85336e-09
9.88867e-06
3.04492e-08
-9.91129e-06
-7.84415e-09
9.88869e-06
3.04533e-08
7.58275e-12
-7.08415e-09
2.74902e-08
-7.07587e-09
2.74938e-08
-2.47459e-12
-3.45175e-06
3.44391e-06
-3.45175e-06
3.44391e-06
-2.2397e-12
-9.90776e-12
-9.86418e-06
-9.40702e-09
9.83715e-06
3.64564e-08
-9.86417e-06
-9.418e-09
-2.73794e-12
9.83713e-06
3.64514e-08
-9.0168e-12
-8.51414e-09
3.30217e-08
-8.52406e-09
-2.51951e-12
3.30174e-08
3.01927e-12
-3.43539e-06
3.42598e-06
-3.43539e-06
-4.74787e-12
3.42598e-06
2.71063e-12
-4.36761e-12
-3.66114e-12
-9.86416e-06
-9.41027e-09
9.83712e-06
3.6453e-08
-9.86415e-06
-9.40959e-09
-2.48415e-12
9.8371e-06
3.64513e-08
-3.38004e-12
-8.51703e-09
3.30189e-08
-8.5164e-09
-2.29324e-12
3.30174e-08
-4.21254e-12
-3.43538e-06
3.42597e-06
-3.43538e-06
-2.43316e-12
3.42596e-06
-3.88101e-12
-2.24652e-12
1.36368e-14
-9.86414e-06
-9.40926e-09
9.83709e-06
3.64503e-08
-9.86414e-06
-9.40926e-09
2.50511e-12
9.83709e-06
3.64503e-08
1.20061e-14
-8.5161e-09
3.30164e-08
-8.5161e-09
2.313e-12
3.30164e-08
1.2011e-14
-3.43537e-06
3.42596e-06
-3.43537e-06
2.45374e-12
3.42596e-06
1.04363e-14
2.26486e-12
3.67055e-12
-9.86415e-06
-9.4096e-09
9.8371e-06
3.64513e-08
-9.86416e-06
-9.41028e-09
2.74437e-12
9.83712e-06
3.6453e-08
3.38788e-12
-8.51641e-09
3.30174e-08
-8.51703e-09
2.52128e-12
3.30189e-08
4.22446e-12
-3.43538e-06
3.42596e-06
-3.43538e-06
4.75886e-12
3.42597e-06
3.89266e-12
4.37206e-12
9.94682e-12
-9.86417e-06
-9.41803e-09
9.83713e-06
3.64514e-08
-9.86419e-06
-9.40707e-09
9.83715e-06
3.64564e-08
9.03585e-12
-8.52408e-09
3.30174e-08
-8.5142e-09
3.30218e-08
-2.99355e-12
-3.43539e-06
3.42598e-06
-3.43539e-06
3.42598e-06
-2.70997e-12
-1.16816e-11
-9.80794e-06
-1.12062e-08
9.7758e-06
4.33575e-08
-9.80792e-06
-1.12192e-08
-3.1543e-12
9.77578e-06
4.33516e-08
-1.06571e-11
-1.01739e-08
3.93916e-08
-1.01857e-08
-2.9138e-12
3.93864e-08
3.62415e-12
-3.4158e-06
3.40459e-06
-3.4158e-06
-5.46655e-12
3.40459e-06
3.26993e-12
-5.04758e-12
-4.18371e-12
-9.80791e-06
-1.121e-08
9.77576e-06
4.33533e-08
-9.80789e-06
-1.12092e-08
-2.83698e-12
9.77575e-06
4.33513e-08
-3.87646e-12
-1.01774e-08
3.93881e-08
-1.01766e-08
-2.62801e-12
3.93863e-08
-4.83153e-12
-3.41579e-06
3.40458e-06
-3.41579e-06
-2.78158e-12
3.40457e-06
-4.46719e-12
-2.57679e-12
1.57659e-14
-9.80788e-06
-1.12089e-08
9.77574e-06
4.33502e-08
-9.80788e-06
-1.12089e-08
2.86287e-12
9.77574e-06
4.33502e-08
1.37443e-14
-1.01763e-08
3.93852e-08
-1.01763e-08
2.65122e-12
3.93852e-08
1.37612e-14
-3.41578e-06
3.40457e-06
-3.41578e-06
2.80587e-12
3.40457e-06
1.193e-14
2.59808e-12
4.19887e-12
-9.80789e-06
-1.12092e-08
9.77575e-06
4.33514e-08
-9.80791e-06
-1.121e-08
3.16909e-12
9.77577e-06
4.33533e-08
3.88747e-12
-1.01766e-08
3.93863e-08
-1.01774e-08
2.91774e-12
3.93881e-08
4.84931e-12
-3.41579e-06
3.40457e-06
-3.41579e-06
5.48593e-12
3.40458e-06
4.4826e-12
5.05729e-12
1.17223e-11
-9.80792e-06
-1.12192e-08
9.77578e-06
4.33515e-08
-9.80794e-06
-1.12062e-08
9.7758e-06
4.33575e-08
1.06816e-11
-1.01857e-08
3.93864e-08
-1.0174e-08
3.93916e-08
-3.5941e-12
-3.4158e-06
3.40459e-06
-3.4158e-06
3.40459e-06
-3.26387e-12
-1.36626e-11
-9.74121e-06
-1.32481e-08
9.70329e-06
5.1179e-08
-9.74119e-06
-1.32632e-08
-3.60719e-12
9.70327e-06
5.1172e-08
-1.25175e-11
-1.20737e-08
4.66726e-08
-1.20875e-08
-3.3451e-12
4.66665e-08
4.31528e-12
-3.39251e-06
3.37926e-06
-3.39251e-06
-6.24742e-12
3.37926e-06
3.91113e-12
-5.7889e-12
-4.75231e-12
-9.74117e-06
-1.32526e-08
9.70325e-06
5.1174e-08
-9.74116e-06
-1.32517e-08
-3.22141e-12
9.70324e-06
5.11717e-08
-4.41522e-12
-1.20777e-08
4.66684e-08
-1.20768e-08
-2.99229e-12
4.66662e-08
-5.50595e-12
-3.3925e-06
3.37925e-06
-3.3925e-06
-3.16017e-12
3.37924e-06
-5.10605e-12
-2.9363e-12
1.99011e-14
-9.74115e-06
-1.32512e-08
9.70323e-06
5.11703e-08
-9.74115e-06
-1.32512e-08
3.25492e-12
9.70323e-06
5.11703e-08
1.56548e-14
-1.20764e-08
4.6665e-08
-1.20764e-08
3.02185e-12
4.6665e-08
1.73041e-14
-3.39249e-06
3.37924e-06
-3.39249e-06
3.19256e-12
3.37924e-06
1.43398e-14
2.9633e-12
4.77354e-12
-9.74116e-06
-1.32516e-08
9.70324e-06
5.11717e-08
-9.74118e-06
-1.32526e-08
3.62319e-12
9.70326e-06
5.1174e-08
4.43348e-12
-1.20768e-08
4.66662e-08
-1.20777e-08
3.35534e-12
4.66684e-08
5.53201e-12
-3.3925e-06
3.37924e-06
-3.3925e-06
6.27567e-12
3.37925e-06
5.12968e-12
5.8089e-12
1.36957e-11
-9.74119e-06
-1.32633e-08
9.70328e-06
5.1172e-08
-9.74121e-06
-1.32481e-08
9.7033e-06
5.1179e-08
1.25405e-11
-1.20875e-08
4.66665e-08
-1.20737e-08
4.66727e-08
-4.28783e-12
-3.39251e-06
3.37926e-06
-3.39252e-06
3.37926e-06
-3.89977e-12
-1.58406e-11
-9.66261e-06
-1.55632e-08
9.61815e-06
6.00383e-08
-9.66259e-06
-1.55809e-08
-4.09736e-12
9.61813e-06
6.00301e-08
-1.45774e-11
-1.42312e-08
5.4932e-08
-1.42473e-08
-3.81228e-12
5.49247e-08
5.12783e-12
-3.36503e-06
3.34946e-06
-3.36502e-06
-7.09795e-12
3.34946e-06
4.65551e-12
-6.59844e-12
-5.37333e-12
-9.66256e-06
-1.55685e-08
9.6181e-06
6.00322e-08
-9.66255e-06
-1.55674e-08
-3.64148e-12
9.61808e-06
6.00295e-08
-5.0049e-12
-1.42359e-08
5.49268e-08
-1.42349e-08
-3.39081e-12
5.49243e-08
-6.24473e-12
-3.36501e-06
3.34945e-06
-3.365e-06
-3.57439e-12
3.34943e-06
-5.80627e-12
-3.32905e-12
2.45698e-14
-9.66253e-06
-1.55669e-08
9.61807e-06
6.00278e-08
-9.66253e-06
-1.55669e-08
3.68103e-12
9.61807e-06
6.00278e-08
2.08094e-14
-1.42344e-08
5.49228e-08
-1.42344e-08
3.42832e-12
5.49228e-08
2.16581e-14
-3.365e-06
3.34943e-06
-3.365e-06
3.61326e-12
3.34943e-06
1.82248e-14
3.3641e-12
5.39576e-12
-9.66255e-06
-1.55674e-08
9.61808e-06
6.00295e-08
-9.66257e-06
-1.55685e-08
4.11656e-12
9.6181e-06
6.00322e-08
5.02789e-12
-1.42349e-08
5.49243e-08
-1.42359e-08
3.82596e-12
5.49268e-08
6.27294e-12
-3.365e-06
3.34943e-06
-3.36501e-06
7.12595e-12
3.34945e-06
5.83599e-12
6.6215e-12
1.58781e-11
-9.66259e-06
-1.55809e-08
9.61813e-06
6.003e-08
-9.66261e-06
-1.55632e-08
9.61815e-06
6.00383e-08
1.45985e-11
-1.42473e-08
5.49247e-08
-1.42312e-08
5.4932e-08
-5.09804e-12
-3.36502e-06
3.34946e-06
-3.36503e-06
3.34946e-06
-4.64509e-12
-1.82416e-11
-9.5706e-06
-1.81619e-08
9.51881e-06
6.99731e-08
-9.57057e-06
-1.81824e-08
-4.62612e-12
9.51878e-06
6.99635e-08
-1.68413e-11
-1.66629e-08
6.42316e-08
-1.66816e-08
-4.31968e-12
6.4223e-08
6.0545e-12
-3.33279e-06
3.31462e-06
-3.33279e-06
-8.00543e-12
3.31462e-06
5.51824e-12
-7.46933e-12
-6.0407e-12
-9.57055e-06
-1.8168e-08
9.51875e-06
6.99658e-08
-9.57052e-06
-1.81667e-08
-4.09619e-12
9.51873e-06
6.99626e-08
-5.64281e-12
-1.66684e-08
6.42253e-08
-1.66672e-08
-3.82345e-12
6.42223e-08
-7.04085e-12
-3.33278e-06
3.31461e-06
-3.33276e-06
-4.02353e-12
3.31459e-06
-6.56584e-12
-3.75623e-12
2.68357e-14
-9.57051e-06
-1.81661e-08
9.51871e-06
6.99606e-08
-9.57051e-06
-1.81661e-08
4.14084e-12
9.51871e-06
6.99606e-08
2.38391e-14
-1.66666e-08
6.42206e-08
-1.66666e-08
3.86524e-12
6.42206e-08
2.33366e-14
-3.33276e-06
3.31459e-06
-3.33276e-06
4.06703e-12
3.31459e-06
2.07929e-14
3.79597e-12
6.06818e-12
-9.57053e-06
-1.81667e-08
9.51873e-06
6.99626e-08
-9.57055e-06
-1.8168e-08
4.65396e-12
9.51875e-06
6.99658e-08
5.6663e-12
-1.66672e-08
6.42223e-08
-1.66684e-08
4.33315e-12
6.42253e-08
7.07541e-12
-3.33276e-06
3.3146e-06
-3.33278e-06
8.04336e-12
3.31461e-06
6.59878e-12
7.49581e-12
1.82806e-11
-9.57057e-06
-1.81824e-08
9.51878e-06
6.99635e-08
-9.5706e-06
-1.81619e-08
9.51881e-06
6.99731e-08
1.68674e-11
-1.66816e-08
6.4223e-08
-1.66629e-08
6.42316e-08
-6.0186e-12
-3.33279e-06
3.31462e-06
-3.33279e-06
3.31462e-06
-5.50023e-12
-2.08439e-11
-9.46359e-06
-2.10542e-08
9.40364e-06
8.10218e-08
-9.46356e-06
-2.10777e-08
-5.17762e-12
9.40361e-06
8.10106e-08
-1.93224e-11
-1.93811e-08
7.46179e-08
-1.94026e-08
-4.86363e-12
7.4608e-08
7.10716e-12
-3.29524e-06
3.27417e-06
-3.29523e-06
-8.96539e-12
3.27417e-06
6.4991e-12
-8.39448e-12
-6.75116e-12
-9.46353e-06
-2.10613e-08
9.40358e-06
8.10131e-08
-9.4635e-06
-2.10597e-08
-4.58474e-12
9.40355e-06
8.10093e-08
-6.32685e-12
-1.93874e-08
7.46104e-08
-1.9386e-08
-4.29126e-12
7.46069e-08
-7.89307e-12
-3.29522e-06
3.27416e-06
-3.29521e-06
-4.5074e-12
3.27414e-06
-7.38204e-12
-4.21847e-12
2.76197e-14
-9.46349e-06
-2.10591e-08
9.40354e-06
8.1007e-08
-9.46349e-06
-2.10591e-08
4.63373e-12
9.40354e-06
8.1007e-08
2.52162e-14
-1.93854e-08
7.46049e-08
-1.93854e-08
4.33822e-12
7.46049e-08
2.38617e-14
-3.2952e-06
3.27413e-06
-3.2952e-06
4.5547e-12
3.27413e-06
2.22072e-14
4.26315e-12
6.78904e-12
-9.46351e-06
-2.10597e-08
9.40355e-06
8.10093e-08
-9.46353e-06
-2.10613e-08
5.22053e-12
9.40358e-06
8.10131e-08
6.35797e-12
-1.9386e-08
7.46069e-08
-1.93874e-08
4.88077e-12
7.46104e-08
7.93892e-12
-3.29521e-06
3.27414e-06
-3.29522e-06
9.0213e-12
3.27416e-06
7.42503e-12
8.43574e-12
2.0885e-11
-9.46356e-06
-2.10777e-08
9.40361e-06
8.10107e-08
-9.46359e-06
-2.10542e-08
9.40364e-06
8.10219e-08
1.93512e-11
-1.94026e-08
7.4608e-08
-1.93811e-08
7.4618e-08
-7.06674e-12
-3.29523e-06
3.27417e-06
-3.29524e-06
3.27417e-06
-6.47005e-12
-2.36279e-11
-9.33996e-06
-2.42386e-08
9.27105e-06
9.31785e-08
-9.33993e-06
-2.42655e-08
-5.76636e-12
9.27101e-06
9.31655e-08
-2.19797e-11
-2.23843e-08
8.60843e-08
-2.24089e-08
-5.43231e-12
8.60728e-08
8.2931e-12
-3.25178e-06
3.22754e-06
-3.25178e-06
-9.97245e-12
3.22753e-06
7.60841e-12
-9.3664e-12
-7.49976e-12
-9.3399e-06
-2.42468e-08
9.27098e-06
9.3168e-08
-9.33987e-06
-2.4245e-08
-5.09783e-12
9.27095e-06
9.31636e-08
-7.04928e-12
-2.23916e-08
8.60753e-08
-2.23899e-08
-4.78777e-12
8.60713e-08
-8.79149e-12
-3.25176e-06
3.22752e-06
-3.25175e-06
-5.01556e-12
3.2275e-06
-8.24761e-12
-4.70996e-12
2.72687e-14
-9.33985e-06
-2.42442e-08
9.27093e-06
9.3161e-08
-9.33985e-06
-2.42442e-08
5.14677e-12
9.27093e-06
9.3161e-08
2.40077e-14
-2.23892e-08
8.60688e-08
-2.23892e-08
4.83537e-12
8.60688e-08
2.36577e-14
-3.25174e-06
3.22749e-06
-3.25174e-06
5.06439e-12
3.22749e-06
2.2198e-14
4.75738e-12
7.53657e-12
-9.33987e-06
-2.4245e-08
9.27095e-06
9.31636e-08
-9.3399e-06
-2.42468e-08
5.80113e-12
9.27098e-06
9.31681e-08
7.08346e-12
-2.23899e-08
8.60713e-08
-2.23915e-08
5.43874e-12
8.60753e-08
8.84145e-12
-3.25175e-06
3.2275e-06
-3.25177e-06
1.00353e-11
3.22752e-06
8.2994e-12
9.42132e-12
2.36635e-11
-9.33993e-06
-2.42655e-08
9.27101e-06
9.31655e-08
-9.33997e-06
-2.42387e-08
9.27105e-06
9.31786e-08
2.20068e-11
-2.2409e-08
8.60728e-08
-2.23843e-08
8.60844e-08
-8.25226e-12
-3.25178e-06
3.22753e-06
-3.25178e-06
3.22754e-06
-7.57425e-12
-2.65911e-11
-9.19806e-06
-2.77186e-08
9.11935e-06
1.06457e-07
-9.19803e-06
-2.77491e-08
-6.38117e-12
9.11931e-06
1.06442e-07
-2.48351e-11
-2.56897e-08
9.8698e-08
-2.57177e-08
-6.03486e-12
9.86847e-08
9.61421e-12
-3.20184e-06
3.17411e-06
-3.20183e-06
-1.10207e-11
3.17411e-06
8.85041e-12
-1.03884e-11
-8.27301e-12
-9.19799e-06
-2.77279e-08
9.11928e-06
1.06444e-07
-9.19796e-06
-2.77258e-08
-5.62474e-12
9.11924e-06
1.06439e-07
-7.80559e-12
-2.5698e-08
9.86872e-08
-2.5696e-08
-5.30351e-12
9.86825e-08
-9.72359e-12
-3.20182e-06
3.17409e-06
-3.2018e-06
-5.5379e-12
3.17407e-06
-9.15671e-12
-5.22136e-12
2.84283e-14
-9.19794e-06
-2.77248e-08
9.11923e-06
1.06436e-07
-9.19794e-06
-2.77248e-08
5.67396e-12
9.11923e-06
1.06436e-07
2.46589e-14
-2.56952e-08
9.86797e-08
-2.56952e-08
5.35227e-12
9.86797e-08
2.42529e-14
-3.20179e-06
3.17406e-06
-3.20179e-06
5.58646e-12
3.17406e-06
2.30923e-14
5.27058e-12
8.30232e-12
-9.19796e-06
-2.77258e-08
9.11925e-06
1.06439e-07
-9.19799e-06
-2.77279e-08
6.40323e-12
9.11928e-06
1.06444e-07
7.8349e-12
-2.5696e-08
9.86825e-08
-2.56979e-08
6.02216e-12
9.86873e-08
9.76549e-12
-3.2018e-06
3.17407e-06
-3.20182e-06
1.10668e-11
3.17409e-06
9.20703e-12
1.04396e-11
2.66165e-11
-9.19803e-06
-2.77491e-08
9.11931e-06
1.06442e-07
-9.19807e-06
-2.77187e-08
9.11935e-06
1.06457e-07
2.48545e-11
-2.57177e-08
9.86848e-08
-2.56897e-08
9.86981e-08
-9.58125e-12
-3.20183e-06
3.17411e-06
-3.20184e-06
3.17411e-06
-8.81478e-12
-2.96329e-11
-9.03628e-06
-3.14817e-08
8.94698e-06
1.2081e-07
-9.03624e-06
-3.1516e-08
-6.98657e-12
8.94694e-06
1.20793e-07
-2.78169e-11
-2.92767e-08
1.1238e-07
-2.93083e-08
-6.63461e-12
1.12364e-07
1.11037e-11
-3.14482e-06
3.11333e-06
-3.14482e-06
-1.20962e-11
3.11333e-06
1.02357e-11
-1.14363e-11
-9.05968e-12
-9.0362e-06
-3.14921e-08
8.9469e-06
1.20795e-07
-9.03616e-06
-3.14897e-08
-6.16913e-12
8.94686e-06
1.20789e-07
-8.57407e-12
-2.9286e-08
1.12367e-07
-2.92837e-08
-5.83026e-12
1.12361e-07
-1.06829e-11
-3.1448e-06
3.11331e-06
-3.14478e-06
-6.08115e-12
3.11329e-06
-1.00908e-11
-5.74684e-12
1.96556e-14