/*--------------------------------*- C++ -*----------------------------------*\
  =========                 |
  \\      /  F ield         | OpenFOAM: The Open Source CFD Toolbox
   \\    /   O peration     | Website:  https://openfoam.org
    \\  /    A nd           | Version:  9
     \\/     M anipulation  |
\*---------------------------------------------------------------------------*/
FoamFile
{
    format      ascii;
    class       volVectorField;
    location    "1";
    object      U;
}
// * * * * * * * * * * * * * * * * * * * * * * * * * * * * * * * * * * * * * //

dimensions      [0 1 -1 0 0 0 0];

internalField   nonuniform List<vector> 
36360
(
(3.05783e-06 -0.0191724 -0.936528)
(3.03432e-06 -0.0191723 -7.42378e-09)
(4.25316e-06 -0.0191798 -0.945302)
(4.27387e-06 -0.0191798 8.41788e-09)
(5.38428e-07 -0.00667555 -0.924091)
(5.18483e-07 -0.00667548 -5.39171e-09)
(1.06961e-06 -0.00667981 -0.932467)
(1.07294e-06 -0.00667982 8.13705e-09)
(3.03022e-06 -0.0191723 -3.1608e-11)
(3.03029e-06 -0.0191723 1.38577e-10)
(4.27995e-06 -0.0191798 4.48582e-10)
(4.28159e-06 -0.0191798 -6.81404e-11)
(5.14908e-07 -0.00667546 -2.70375e-10)
(5.14674e-07 -0.00667545 6.91502e-11)
(1.07358e-06 -0.00667982 5.65217e-10)
(1.07368e-06 -0.00667982 -2.25376e-11)
(3.0307e-06 -0.0191722 4.09335e-11)
(3.03085e-06 -0.0191722 -2.66483e-11)
(4.28215e-06 -0.0191798 -1.57168e-11)
(4.28236e-06 -0.0191798 3.54753e-11)
(5.14786e-07 -0.00667545 3.39443e-11)
(5.14814e-07 -0.00667545 -1.28508e-11)
(1.07373e-06 -0.00667982 -4.41332e-12)
(1.07378e-06 -0.00667982 2.68396e-11)
(3.03075e-06 -0.0191723 -1.23751e-10)
(3.03092e-06 -0.0191723 4.70621e-11)
(4.2822e-06 -0.0191798 8.64314e-11)
(4.2809e-06 -0.0191798 -4.33094e-10)
(5.14767e-07 -0.00667545 -4.97865e-11)
(5.15041e-07 -0.00667546 2.87945e-10)
(1.07384e-06 -0.00667982 4.31558e-11)
(1.07383e-06 -0.00667983 -5.48298e-10)
(3.03521e-06 -0.0191723 7.43512e-09)
(3.05884e-06 -0.0191724 0.936528)
(4.27507e-06 -0.0191798 -8.40958e-09)
(4.2545e-06 -0.0191798 0.945302)
(5.18661e-07 -0.00667548 5.40573e-09)
(5.38646e-07 -0.00667556 0.924091)
(1.07325e-06 -0.00667982 -8.12737e-09)
(1.06996e-06 -0.00667982 0.932467)
(2.25898e-06 -0.0191644 -0.935817)
(2.2576e-06 -0.0191645 -1.72418e-09)
(2.46485e-06 -0.0191683 -0.935997)
(2.46328e-06 -0.0191684 -2.02508e-09)
(2.49805e-07 -0.00667247 -0.923398)
(2.43535e-07 -0.00667248 -1.11604e-09)
(3.2834e-07 -0.00667386 -0.923574)
(3.21832e-07 -0.00667389 -1.66477e-09)
(2.25802e-06 -0.0191645 -3.5137e-10)
(2.25877e-06 -0.0191644 -3.80552e-11)
(2.46616e-06 -0.0191684 4.75467e-10)
(2.46835e-06 -0.0191684 2.87428e-10)
(2.42359e-07 -0.00667248 -4.06669e-10)
(2.42458e-07 -0.00667248 -5.77543e-11)
(3.22134e-07 -0.00667389 1.91397e-10)
(3.2303e-07 -0.00667389 2.14692e-10)
(2.25913e-06 -0.0191644 -4.44003e-12)
(2.25923e-06 -0.0191644 2.30946e-11)
(2.46926e-06 -0.0191684 7.2325e-11)
(2.46938e-06 -0.0191684 -5.4886e-11)
(2.42556e-07 -0.00667248 -1.27589e-12)
(2.42572e-07 -0.00667248 2.34601e-11)
(3.23407e-07 -0.00667389 6.7386e-11)
(3.23427e-07 -0.00667389 -4.58936e-11)
(2.25905e-06 -0.0191645 5.49596e-11)
(2.25847e-06 -0.0191645 3.71209e-10)
(2.46871e-06 -0.0191684 -2.70498e-10)
(2.46672e-06 -0.0191684 -4.59428e-10)
(2.42502e-07 -0.00667248 7.84576e-11)
(2.42432e-07 -0.00667248 4.28177e-10)
(3.23091e-07 -0.00667389 -1.93026e-10)
(3.22232e-07 -0.00667389 -1.72496e-10)
(2.25817e-06 -0.0191645 1.73827e-09)
(2.25964e-06 -0.0191644 0.935817)
(2.46399e-06 -0.0191684 2.03645e-09)
(2.46567e-06 -0.0191683 0.935997)
(2.43641e-07 -0.00667248 1.1331e-09)
(2.49964e-07 -0.00667247 0.923398)
(3.21964e-07 -0.00667389 1.67797e-09)
(3.28525e-07 -0.00667386 0.923574)
(2.58176e-06 -0.019156 -0.935085)
(2.5786e-06 -0.019156 -1.61825e-09)
(2.31394e-06 -0.0191604 -0.93528)
(2.31094e-06 -0.0191604 -1.78201e-09)
(2.46856e-07 -0.00666966 -0.922686)
(2.3903e-07 -0.00666967 -8.7339e-10)
(2.28457e-07 -0.0066711 -0.922875)
(2.21203e-07 -0.00667111 -1.06957e-09)
(2.57781e-06 -0.019156 -7.34724e-10)
(2.57801e-06 -0.019156 -3.51387e-10)
(2.31022e-06 -0.0191604 -6.14318e-10)
(2.3106e-06 -0.0191604 -1.95619e-10)
(2.36875e-07 -0.00666967 -7.84662e-10)
(2.36739e-07 -0.00666966 -3.98505e-10)
(2.19278e-07 -0.00667111 -6.61058e-10)
(2.19231e-07 -0.00667111 -2.39757e-10)
(2.57819e-06 -0.019156 -1.02228e-10)
(2.57824e-06 -0.019156 1.18265e-10)
(2.31085e-06 -0.0191604 -4.67066e-11)
(2.31092e-06 -0.0191604 6.3463e-11)
(2.36795e-07 -0.00666966 -1.07386e-10)
(2.36801e-07 -0.00666966 1.26085e-10)
(2.193e-07 -0.0066711 -4.91643e-11)
(2.19311e-07 -0.0066711 6.88177e-11)
(2.57817e-06 -0.019156 3.67473e-10)
(2.57805e-06 -0.019156 7.52349e-10)
(2.31081e-06 -0.0191604 2.11594e-10)
(2.31056e-06 -0.0191604 6.31025e-10)
(2.36754e-07 -0.00666967 4.17302e-10)
(2.36903e-07 -0.00666967 8.01652e-10)
(2.19262e-07 -0.00667111 2.59583e-10)
(2.19329e-07 -0.00667111 6.78273e-10)
(2.57891e-06 -0.019156 1.63581e-09)
(2.58213e-06 -0.019156 0.935085)
(2.31138e-06 -0.0191604 1.79653e-09)
(2.31448e-06 -0.0191604 0.93528)
(2.39073e-07 -0.00666967 8.88748e-10)
(2.46946e-07 -0.00666966 0.922686)
(2.21278e-07 -0.00667111 1.0842e-09)
(2.28601e-07 -0.0066711 0.922875)
(3.60165e-06 -0.0191451 -0.934325)
(3.59758e-06 -0.0191451 -1.63385e-09)
(3.02225e-06 -0.019151 -0.934518)
(3.01876e-06 -0.019151 -1.58252e-09)
(3.56529e-07 -0.00666609 -0.921945)
(3.46003e-07 -0.00666609 -6.45437e-10)
(2.92304e-07 -0.00666802 -0.922133)
(2.83371e-07 -0.00666802 -7.40233e-10)
(3.5965e-06 -0.0191451 -9.52964e-10)
(3.59638e-06 -0.0191451 -6.18512e-10)
(3.01784e-06 -0.019151 -8.54128e-10)
(3.01784e-06 -0.019151 -4.97036e-10)
(3.43089e-07 -0.00666609 -1.0082e-09)
(3.42702e-07 -0.00666609 -6.66193e-10)
(2.80881e-07 -0.00666802 -8.99501e-10)
(2.80594e-07 -0.00666802 -5.4177e-10)
(3.59637e-06 -0.0191451 -2.11908e-10)
(3.59639e-06 -0.0191451 2.33261e-10)
(3.01792e-06 -0.019151 -1.59721e-10)
(3.01796e-06 -0.019151 1.77445e-10)
(3.42685e-07 -0.00666609 -2.18705e-10)
(3.42685e-07 -0.00666609 2.4116e-10)
(2.80623e-07 -0.00666802 -1.68343e-10)
(2.80626e-07 -0.00666802 1.87842e-10)
(3.59644e-06 -0.0191451 6.34313e-10)
(3.59659e-06 -0.0191451 9.61699e-10)
(3.01794e-06 -0.019151 5.12165e-10)
(3.01799e-06 -0.019151 8.66217e-10)
(3.427e-07 -0.00666609 6.83223e-10)
(3.43087e-07 -0.00666609 1.01531e-09)
(2.80598e-07 -0.00666802 5.58782e-10)
(2.8089e-07 -0.00666802 9.10771e-10)
(3.59769e-06 -0.0191451 1.65383e-09)
(3.60177e-06 -0.0191451 0.934325)
(3.01896e-06 -0.019151 1.59658e-09)
(3.02248e-06 -0.019151 0.934518)
(3.46e-07 -0.00666609 6.5479e-10)
(3.56533e-07 -0.00666609 0.921945)
(2.83386e-07 -0.00666802 7.45887e-10)
(2.92349e-07 -0.00666802 0.922133)
(5.10153e-06 -0.01913 -0.933536)
(5.09606e-06 -0.01913 -1.8996e-09)
(4.3003e-06 -0.0191381 -0.933744)
(4.29562e-06 -0.0191381 -1.74274e-09)
(5.26286e-07 -0.00666107 -0.921176)
(5.11628e-07 -0.00666107 -5.26182e-10)
(4.35544e-07 -0.00666379 -0.921379)
(4.23113e-07 -0.00666379 -5.79045e-10)
(5.09466e-06 -0.01913 -1.14216e-09)
(5.09438e-06 -0.01913 -8.41039e-10)
(4.29439e-06 -0.0191381 -1.04468e-09)
(4.29419e-06 -0.0191381 -7.31411e-10)
(5.07665e-07 -0.00666107 -1.22912e-09)
(5.07078e-07 -0.00666107 -8.98814e-10)
(4.19711e-07 -0.00666379 -1.11385e-09)
(4.19226e-07 -0.00666379 -7.83147e-10)
(5.09423e-06 -0.01913 -3.09279e-10)
(5.09424e-06 -0.01913 3.35598e-10)
(4.2941e-06 -0.0191381 -2.61812e-10)
(4.29411e-06 -0.0191381 2.84976e-10)
(5.06978e-07 -0.00666107 -3.13855e-10)
(5.06979e-07 -0.00666107 3.40312e-10)
(4.19166e-07 -0.00666379 -2.67146e-10)
(4.19165e-07 -0.00666379 2.90869e-10)
(5.0944e-06 -0.01913 8.60397e-10)
(5.09469e-06 -0.01913 1.15344e-09)
(4.29422e-06 -0.0191381 7.47909e-10)
(4.29444e-06 -0.0191381 1.05344e-09)
(5.07079e-07 -0.00666107 9.18558e-10)
(5.07664e-07 -0.00666107 1.23794e-09)
(4.19224e-07 -0.00666379 8.00703e-10)
(4.19703e-07 -0.00666379 1.12052e-09)
(5.0961e-06 -0.01913 1.91849e-09)
(5.10157e-06 -0.01913 0.933536)
(4.29567e-06 -0.0191381 1.7539e-09)
(4.30036e-06 -0.0191381 0.933744)
(5.11628e-07 -0.00666108 5.34946e-10)
(5.26311e-07 -0.00666107 0.921176)
(4.23101e-07 -0.00666379 5.76731e-10)
(4.35545e-07 -0.00666379 0.921379)
(6.9886e-06 -0.0191096 -0.932724)
(6.9813e-06 -0.0191096 -2.33154e-09)
(5.99896e-06 -0.0191206 -0.932931)
(5.99266e-06 -0.0191205 -2.10017e-09)
(7.38749e-07 -0.00665419 -0.920386)
(7.18816e-07 -0.00665419 -4.66324e-10)
(6.27588e-07 -0.00665789 -0.920587)
(6.10442e-07 -0.00665789 -4.94772e-10)
(6.9795e-06 -0.0191096 -1.36828e-09)
(6.97908e-06 -0.0191096 -1.06816e-09)
(5.99108e-06 -0.0191205 -1.24998e-09)
(5.99073e-06 -0.0191205 -9.52179e-10)
(7.13539e-07 -0.00665419 -1.49484e-09)
(7.12723e-07 -0.00665419 -1.14257e-09)
(6.05856e-07 -0.00665789 -1.35518e-09)
(6.05158e-07 -0.00665788 -1.01763e-09)
(6.97882e-06 -0.0191096 -4.05815e-10)
(6.97883e-06 -0.0191096 4.35482e-10)
(5.99053e-06 -0.0191205 -3.5688e-10)
(5.99053e-06 -0.0191205 3.84949e-10)
(7.12558e-07 -0.00665418 -4.10821e-10)
(7.12562e-07 -0.00665418 4.39574e-10)
(6.05026e-07 -0.00665788 -3.61681e-10)
(6.0503e-07 -0.00665788 3.89119e-10)
(6.97909e-06 -0.0191096 1.09222e-09)
(6.97952e-06 -0.0191096 1.38718e-09)
(5.99075e-06 -0.0191205 9.73717e-10)
(5.99111e-06 -0.0191205 1.26321e-09)
(7.12732e-07 -0.00665419 1.1663e-09)
(7.13552e-07 -0.00665419 1.51091e-09)
(6.05165e-07 -0.00665788 1.03908e-09)
(6.05863e-07 -0.00665789 1.36615e-09)
(6.98135e-06 -0.0191096 2.35557e-09)
(6.98867e-06 -0.0191096 0.932724)
(5.99271e-06 -0.0191205 2.11321e-09)
(5.99903e-06 -0.0191206 0.932931)
(7.18847e-07 -0.00665419 4.82267e-10)
(7.38823e-07 -0.00665419 0.920386)
(6.1046e-07 -0.00665789 4.97051e-10)
(6.27652e-07 -0.00665789 0.920587)
(9.25984e-06 -0.0190829 -0.931874)
(9.25029e-06 -0.0190829 -2.89246e-09)
(8.07425e-06 -0.0190971 -0.932087)
(8.06593e-06 -0.0190971 -2.59679e-09)
(9.92302e-07 -0.00664509 -0.919557)
(9.66023e-07 -0.00664509 -4.37466e-10)
(8.60147e-07 -0.00664994 -0.919764)
(8.37196e-07 -0.00664994 -4.5223e-10)
(9.24798e-06 -0.0190829 -1.64231e-09)
(9.24743e-06 -0.0190829 -1.31961e-09)
(8.06389e-06 -0.0190971 -1.50226e-09)
(8.06341e-06 -0.0190971 -1.19046e-09)
(9.59149e-07 -0.00664509 -1.81642e-09)
(9.58066e-07 -0.00664508 -1.41526e-09)
(8.31157e-07 -0.00664993 -1.65033e-09)
(8.30211e-07 -0.00664993 -1.27497e-09)
(9.24708e-06 -0.0190829 -5.11421e-10)
(9.24708e-06 -0.0190829 5.37945e-10)
(8.0631e-06 -0.0190971 -4.57007e-10)
(8.06311e-06 -0.0190971 4.85913e-10)
(9.57833e-07 -0.00664508 -5.17487e-10)
(9.57836e-07 -0.00664508 5.42942e-10)
(8.30013e-07 -0.00664993 -4.6274e-10)
(8.30017e-07 -0.00664993 4.90313e-10)
(9.24744e-06 -0.0190829 1.34225e-09)
(9.248e-06 -0.0190829 1.6643e-09)
(8.06342e-06 -0.0190971 1.21399e-09)
(8.0639e-06 -0.0190971 1.51878e-09)
(9.5807e-07 -0.00664508 1.4376e-09)
(9.59152e-07 -0.00664509 1.83505e-09)
(8.30218e-07 -0.00664993 1.29803e-09)
(8.31162e-07 -0.00664993 1.66443e-09)
(9.25033e-06 -0.0190829 2.91904e-09)
(9.25991e-06 -0.0190829 0.931874)
(8.06596e-06 -0.0190971 2.61512e-09)
(8.07434e-06 -0.0190971 0.932087)
(9.66042e-07 -0.00664509 4.57682e-10)
(9.92389e-07 -0.00664509 0.919557)
(8.37219e-07 -0.00664994 4.60782e-10)
(8.60239e-07 -0.00664994 0.919764)
(1.19716e-05 -0.0190488 -0.931002)
(1.19594e-05 -0.0190488 -3.58247e-09)
(1.05562e-05 -0.0190668 -0.931232)
(1.05454e-05 -0.0190668 -3.22305e-09)
(1.29374e-06 -0.0066334 -0.918708)
(1.25989e-06 -0.0066334 -4.27778e-10)
(1.13644e-06 -0.00663959 -0.918931)
(1.10657e-06 -0.00663959 -4.34929e-10)
(1.19565e-05 -0.0190488 -1.96596e-09)
(1.19558e-05 -0.0190488 -1.60217e-09)
(1.05428e-05 -0.0190668 -1.80043e-09)
(1.05422e-05 -0.0190668 -1.45629e-09)
(1.25112e-06 -0.0066334 -2.1975e-09)
(1.24973e-06 -0.00663339 -1.72408e-09)
(1.09878e-06 -0.00663959 -2.00133e-09)
(1.09755e-06 -0.00663958 -1.5644e-09)
(1.19553e-05 -0.0190487 -6.28374e-10)
(1.19553e-05 -0.0190487 6.49508e-10)
(1.05418e-05 -0.0190668 -5.67852e-10)
(1.05418e-05 -0.0190668 5.91791e-10)
(1.24943e-06 -0.00663339 -6.36167e-10)
(1.24943e-06 -0.00663339 6.56252e-10)
(1.09729e-06 -0.00663958 -5.74954e-10)
(1.09729e-06 -0.00663958 5.97621e-10)
(1.19558e-05 -0.0190488 1.61971e-09)
(1.19565e-05 -0.0190488 1.98439e-09)
(1.05422e-05 -0.0190668 1.47581e-09)
(1.05428e-05 -0.0190668 1.81591e-09)
(1.24973e-06 -0.00663339 1.74122e-09)
(1.25112e-06 -0.0066334 2.21148e-09)
(1.09756e-06 -0.00663958 1.5836e-09)
(1.09879e-06 -0.00663959 2.01312e-09)
(1.19594e-05 -0.0190488 3.60795e-09)
(1.19717e-05 -0.0190488 0.931002)
(1.05455e-05 -0.0190668 3.24028e-09)
(1.05563e-05 -0.0190668 0.931232)
(1.25991e-06 -0.0066334 4.45679e-10)
(1.29384e-06 -0.0066334 0.918708)
(1.10658e-06 -0.00663959 4.44181e-10)
(1.13656e-06 -0.00663959 0.918931)
(1.52114e-05 -0.0190061 -0.930084)
(1.51959e-05 -0.0190061 -4.4038e-09)
(1.35199e-05 -0.0190286 -0.93032)
(1.35062e-05 -0.0190286 -3.97642e-09)
(1.65379e-06 -0.00661872 -0.917813)
(1.61092e-06 -0.00661872 -4.25713e-10)
(1.46571e-06 -0.00662646 -0.918044)
(1.42757e-06 -0.00662646 -4.31362e-10)
(1.51922e-05 -0.019006 -2.35277e-09)
(1.51914e-05 -0.019006 -1.92662e-09)
(1.35029e-05 -0.0190286 -2.15336e-09)
(1.35021e-05 -0.0190285 -1.75842e-09)
(1.59988e-06 -0.00661871 -2.65175e-09)
(1.59814e-06 -0.00661871 -2.08052e-09)
(1.41771e-06 -0.00662646 -2.41574e-09)
(1.41615e-06 -0.00662645 -1.89547e-09)
(1.51908e-05 -0.019006 -7.60017e-10)
(1.51908e-05 -0.019006 7.75338e-10)
(1.35016e-05 -0.0190285 -6.91773e-10)
(1.35016e-05 -0.0190285 7.10123e-10)
(1.59776e-06 -0.0066187 -7.7046e-10)
(1.59776e-06 -0.0066187 7.84979e-10)
(1.41582e-06 -0.00662645 -7.01071e-10)
(1.41582e-06 -0.00662645 7.18154e-10)
(1.51913e-05 -0.019006 1.9353e-09)
(1.51922e-05 -0.019006 2.3575e-09)
(1.35021e-05 -0.0190285 1.77132e-09)
(1.35029e-05 -0.0190286 2.16113e-09)
(1.59813e-06 -0.00661871 2.08912e-09)
(1.59987e-06 -0.00661872 2.6513e-09)
(1.41615e-06 -0.00662645 1.90808e-09)
(1.4177e-06 -0.00662646 2.41948e-09)
(1.51958e-05 -0.0190061 4.43354e-09)
(1.52114e-05 -0.0190061 0.930084)
(1.35062e-05 -0.0190286 3.99226e-09)
(1.352e-05 -0.0190286 0.93032)
(1.61091e-06 -0.00661872 4.37622e-10)
(1.65385e-06 -0.00661872 0.917813)
(1.42757e-06 -0.00662646 4.30975e-10)
(1.46581e-06 -0.00662646 0.918044)
(1.90851e-05 -0.0189533 -0.929144)
(1.90657e-05 -0.0189533 -5.40979e-09)
(1.70627e-05 -0.018981 -0.929399)
(1.70454e-05 -0.018981 -4.88615e-09)
(2.08498e-06 -0.00660053 -0.916897)
(2.0314e-06 -0.00660053 -4.45628e-10)
(1.85969e-06 -0.0066101 -0.917146)
(1.81172e-06 -0.0066101 -4.4099e-10)
(1.90611e-05 -0.0189533 -2.80696e-09)
(1.90601e-05 -0.0189533 -2.30101e-09)
(1.70413e-05 -0.018981 -2.57065e-09)
(1.70404e-05 -0.018981 -2.10644e-09)
(2.01767e-06 -0.00660053 -3.18698e-09)
(2.01551e-06 -0.00660052 -2.49379e-09)
(1.79939e-06 -0.00661009 -2.90681e-09)
(1.79744e-06 -0.00661008 -2.27851e-09)
(1.90594e-05 -0.0189533 -9.10574e-10)
(1.90594e-05 -0.0189533 9.22073e-10)
(1.70398e-05 -0.018981 -8.32809e-10)
(1.70397e-05 -0.018981 8.4469e-10)
(2.01506e-06 -0.00660052 -9.2438e-10)
(2.01506e-06 -0.00660052 9.35331e-10)
(1.79703e-06 -0.00661008 -8.44946e-10)
(1.79703e-06 -0.00661008 8.56185e-10)
(1.90601e-05 -0.0189533 2.30551e-09)
(1.90611e-05 -0.0189533 2.80829e-09)
(1.70403e-05 -0.018981 2.11116e-09)
(1.70413e-05 -0.018981 2.56947e-09)
(2.0155e-06 -0.00660052 2.49862e-09)
(2.01766e-06 -0.00660053 3.18184e-09)
(1.79743e-06 -0.00661008 2.28384e-09)
(1.79937e-06 -0.00661009 2.90105e-09)
(1.90656e-05 -0.0189533 5.43889e-09)
(1.90851e-05 -0.0189533 0.929144)
(1.70453e-05 -0.018981 4.89967e-09)
(1.70627e-05 -0.018981 0.929399)
(2.03139e-06 -0.00660054 4.54485e-10)
(2.08506e-06 -0.00660054 0.916897)
(1.8117e-06 -0.0066101 4.3033e-10)
(1.85977e-06 -0.0066101 0.917146)
(2.37071e-05 -0.018889 -0.928168)
(2.36831e-05 -0.0188889 -6.6229e-09)
(2.12957e-05 -0.0189227 -0.928419)
(2.12742e-05 -0.0189227 -5.99343e-09)
(2.60071e-06 -0.00657827 -0.915947)
(2.53439e-06 -0.00657827 -4.88716e-10)
(2.33138e-06 -0.00658995 -0.916192)
(2.27174e-06 -0.00658995 -4.73469e-10)
(2.36776e-05 -0.0188889 -3.34738e-09)
(2.36763e-05 -0.0188889 -2.7393e-09)
(2.12692e-05 -0.0189227 -3.06672e-09)
(2.12681e-05 -0.0189227 -2.51079e-09)
(2.51749e-06 -0.00657826 -3.82229e-09)
(2.51483e-06 -0.00657825 -2.97869e-09)
(2.25648e-06 -0.00658994 -3.4906e-09)
(2.25408e-06 -0.00658993 -2.72589e-09)
(2.36756e-05 -0.0188889 -1.0824e-09)
(2.36756e-05 -0.0188889 1.09935e-09)
(2.12674e-05 -0.0189226 -9.93015e-10)
(2.12673e-05 -0.0189226 1.0062e-09)
(2.5143e-06 -0.00657825 -1.10139e-09)
(2.5143e-06 -0.00657825 1.1162e-09)
(2.25359e-06 -0.00658993 -1.00976e-09)
(2.25359e-06 -0.00658993 1.0212e-09)
(2.36763e-05 -0.0188889 2.74975e-09)
(2.36775e-05 -0.0188889 3.35478e-09)
(2.12681e-05 -0.0189227 2.51715e-09)
(2.12692e-05 -0.0189227 3.06744e-09)
(2.51483e-06 -0.00657825 2.98803e-09)
(2.51748e-06 -0.00657826 3.82362e-09)
(2.25408e-06 -0.00658993 2.73198e-09)
(2.25647e-06 -0.00658994 3.48598e-09)
(2.36831e-05 -0.0188889 6.65325e-09)
(2.37072e-05 -0.018889 0.928168)
(2.12742e-05 -0.0189227 6.00708e-09)
(2.12958e-05 -0.0189227 0.928419)
(2.5344e-06 -0.00657827 5.01455e-10)
(2.60078e-06 -0.00657827 0.915947)
(2.27173e-06 -0.00658995 4.63674e-10)
(2.33148e-06 -0.00658995 0.916192)
(2.9203e-05 -0.018811 -0.927156)
(2.91735e-05 -0.018811 -8.04636e-09)
(2.63388e-05 -0.0188518 -0.927431)
(2.63123e-05 -0.0188518 -7.31202e-09)
(3.21533e-06 -0.00655125 -0.914961)
(3.13398e-06 -0.00655125 -5.30586e-10)
(2.89473e-06 -0.0065654 -0.915228)
(2.82123e-06 -0.0065654 -5.18701e-10)
(2.91667e-05 -0.018811 -3.97581e-09)
(2.91652e-05 -0.018811 -3.24784e-09)
(2.63061e-05 -0.0188518 -3.6533e-09)
(2.63048e-05 -0.0188518 -2.98431e-09)
(3.11331e-06 -0.00655124 -4.56371e-09)
(3.11008e-06 -0.00655123 -3.54153e-09)
(2.80251e-06 -0.00656539 -4.18059e-09)
(2.79958e-06 -0.00656538 -3.25002e-09)
(2.91643e-05 -0.018811 -1.28222e-09)
(2.91643e-05 -0.018811 1.3046e-09)
(2.6304e-05 -0.0188517 -1.17849e-09)
(2.6304e-05 -0.0188517 1.1981e-09)
(3.10943e-06 -0.00655122 -1.30567e-09)
(3.10944e-06 -0.00655122 1.32668e-09)
(2.79899e-06 -0.00656537 -1.20021e-09)
(2.79899e-06 -0.00656537 1.21739e-09)
(2.91653e-05 -0.018811 3.26348e-09)
(2.91667e-05 -0.018811 3.98891e-09)
(2.63048e-05 -0.0188518 2.99773e-09)
(2.63061e-05 -0.0188518 3.6587e-09)
(3.11008e-06 -0.00655123 3.55652e-09)
(3.11331e-06 -0.00655124 4.57127e-09)
(2.79958e-06 -0.00656538 3.2618e-09)
(2.8025e-06 -0.00656539 4.18174e-09)
(2.91735e-05 -0.018811 8.07844e-09)
(2.9203e-05 -0.018811 0.927156)
(2.63123e-05 -0.0188518 7.32731e-09)
(2.63389e-05 -0.0188518 0.927431)
(3.134e-06 -0.00655125 5.48402e-10)
(3.21539e-06 -0.00655125 0.914961)
(2.82123e-06 -0.0065654 5.15621e-10)
(2.89481e-06 -0.0065654 0.915228)
(3.57007e-05 -0.0187175 -0.926104)
(3.56649e-05 -0.0187175 -9.67572e-09)
(3.23192e-05 -0.0187664 -0.926376)
(3.22867e-05 -0.0187663 -8.83607e-09)
(3.94341e-06 -0.00651873 -0.913936)
(3.84442e-06 -0.00651873 -5.45028e-10)
(3.56414e-06 -0.00653573 -0.914201)
(3.47434e-06 -0.00653573 -5.48946e-10)
(3.56567e-05 -0.0187175 -4.68197e-09)
(3.56549e-05 -0.0187174 -3.81844e-09)
(3.22792e-05 -0.0187663 -4.32146e-09)
(3.22777e-05 -0.0187663 -3.52485e-09)
(3.81935e-06 -0.00651872 -5.4027e-09)
(3.81544e-06 -0.00651871 -4.17654e-09)
(3.45155e-06 -0.00653572 -4.97111e-09)
(3.44798e-06 -0.0065357 -3.84891e-09)
(3.56538e-05 -0.0187174 -1.50613e-09)
(3.56539e-05 -0.0187174 1.53438e-09)
(3.22767e-05 -0.0187663 -1.39068e-09)
(3.22767e-05 -0.0187663 1.41587e-09)
(3.81468e-06 -0.0065187 -1.53591e-09)
(3.81468e-06 -0.0065187 1.56308e-09)
(3.44729e-06 -0.0065357 -1.41734e-09)
(3.44729e-06 -0.0065357 1.44109e-09)
(3.56549e-05 -0.0187174 3.83787e-09)
(3.56567e-05 -0.0187175 4.69988e-09)
(3.22777e-05 -0.0187663 3.54172e-09)
(3.22793e-05 -0.0187663 4.33261e-09)
(3.81545e-06 -0.00651871 4.19669e-09)
(3.81936e-06 -0.00651872 5.41405e-09)
(3.44799e-06 -0.0065357 3.86639e-09)
(3.45155e-06 -0.00653572 4.97709e-09)
(3.56649e-05 -0.0187175 9.7154e-09)
(3.57008e-05 -0.0187175 0.926104)
(3.22868e-05 -0.0187663 8.85568e-09)
(3.23193e-05 -0.0187664 0.926376)
(3.84446e-06 -0.00651873 5.67702e-10)
(3.94349e-06 -0.00651874 0.913936)
(3.47436e-06 -0.00653573 5.48944e-10)
(3.56422e-06 -0.00653573 0.914201)
(4.33376e-05 -0.018606 -0.925033)
(4.32943e-05 -0.0186059 -1.15477e-08)
(3.93691e-05 -0.0186641 -0.9253)
(3.93297e-05 -0.0186641 -1.05793e-08)
(4.80057e-06 -0.00647987 -0.912892)
(4.68099e-06 -0.00647987 -5.34642e-10)
(4.35473e-06 -0.00650015 -0.913153)
(4.24587e-06 -0.00650015 -5.49192e-10)
(4.32844e-05 -0.0186059 -5.46128e-09)
(4.32823e-05 -0.0186059 -4.45142e-09)
(3.93207e-05 -0.0186641 -5.06265e-09)
(3.93188e-05 -0.0186641 -4.12546e-09)
(4.65081e-06 -0.00647986 -6.34071e-09)
(4.64611e-06 -0.00647984 -4.88584e-09)
(4.21833e-06 -0.00650013 -5.8575e-09)
(4.21403e-06 -0.00650012 -4.51977e-09)
(4.3281e-05 -0.0186059 -1.7545e-09)
(4.32811e-05 -0.0186059 1.79033e-09)
(3.93176e-05 -0.018664 -1.62639e-09)
(3.93177e-05 -0.018664 1.65753e-09)
(4.6452e-06 -0.00647983 -1.79314e-09)
(4.64521e-06 -0.00647983 1.82689e-09)
(4.21321e-06 -0.00650011 -1.66088e-09)
(4.21322e-06 -0.00650011 1.69022e-09)
(4.32823e-05 -0.0186059 4.4807e-09)
(4.32844e-05 -0.0186059 5.48561e-09)
(3.93188e-05 -0.0186641 4.14781e-09)
(3.93207e-05 -0.0186641 5.07927e-09)
(4.64611e-06 -0.00647984 4.91338e-09)
(4.65081e-06 -0.00647986 6.35996e-09)
(4.21404e-06 -0.00650012 4.5429e-09)
(4.21833e-06 -0.00650013 5.86894e-09)
(4.32943e-05 -0.018606 1.15894e-08)
(4.33376e-05 -0.018606 0.925033)
(3.93298e-05 -0.0186641 1.0606e-08)
(3.93692e-05 -0.0186641 0.9253)
(4.68102e-06 -0.00647987 5.64741e-10)
(4.80063e-06 -0.00647987 0.912892)
(4.24589e-06 -0.00650015 5.55778e-10)
(4.35481e-06 -0.00650015 0.913153)
(5.22508e-05 -0.0184739 -0.923889)
(5.2199e-05 -0.0184739 -1.36844e-08)
(4.76279e-05 -0.0185427 -0.924183)
(4.75805e-05 -0.0185426 -1.2581e-08)
(5.80205e-06 -0.00643376 -0.911777)
(5.65862e-06 -0.00643375 -4.97133e-10)
(5.28216e-06 -0.00645777 -0.912064)
(5.15111e-06 -0.00645777 -5.25298e-10)
(5.21871e-05 -0.0184738 -6.32864e-09)
(5.21846e-05 -0.0184738 -5.15993e-09)
(4.75697e-05 -0.0185426 -5.88306e-09)
(4.75674e-05 -0.0185426 -4.79494e-09)
(5.62253e-06 -0.00643374 -7.39377e-09)
(5.6169e-06 -0.00643372 -5.68068e-09)
(5.11808e-06 -0.00645776 -6.85107e-09)
(5.11292e-06 -0.00645774 -5.27028e-09)
(5.21831e-05 -0.0184738 -2.03194e-09)
(5.21831e-05 -0.0184738 2.0794e-09)
(4.7566e-05 -0.0185425 -1.88867e-09)
(4.7566e-05 -0.0185425 1.92954e-09)
(5.61583e-06 -0.00643371 -2.07963e-09)
(5.61583e-06 -0.00643371 2.1256e-09)
(5.11194e-06 -0.00645773 -1.93219e-09)
(5.11195e-06 -0.00645773 1.97103e-09)
(5.21846e-05 -0.0184738 5.1988e-09)
(5.21871e-05 -0.0184738 6.36591e-09)
(4.75674e-05 -0.0185426 4.82833e-09)
(4.75697e-05 -0.0185426 5.91057e-09)
(5.61689e-06 -0.00643372 5.71973e-09)
(5.62251e-06 -0.00643374 7.4238e-09)
(5.11292e-06 -0.00645774 5.30338e-09)
(5.11806e-06 -0.00645776 6.8728e-09)
(5.2199e-05 -0.0184739 1.37298e-08)
(5.22509e-05 -0.0184739 0.923889)
(4.75805e-05 -0.0185426 1.26116e-08)
(4.76279e-05 -0.0185427 0.924183)
(5.65863e-06 -0.00643376 5.30995e-10)
(5.80205e-06 -0.00643376 0.911777)
(5.15112e-06 -0.00645777 5.41104e-10)
(5.28219e-06 -0.00645777 0.912064)
(6.2576e-05 -0.0183186 -0.922722)
(6.25143e-05 -0.0183185 -1.60864e-08)
(5.72299e-05 -0.0183993 -0.923023)
(5.71733e-05 -0.0183993 -1.48487e-08)
(6.96294e-06 -0.0063794 -0.91064)
(6.79211e-06 -0.0063794 -4.08766e-10)
(6.36137e-06 -0.00640767 -0.910933)
(6.20472e-06 -0.00640767 -4.63756e-10)
(6.25002e-05 -0.0183185 -7.2953e-09)
(6.24972e-05 -0.0183184 -5.94968e-09)
(5.71604e-05 -0.0183992 -6.80026e-09)
(5.71577e-05 -0.0183992 -5.5428e-09)
(6.74926e-06 -0.00637938 -8.57246e-09)
(6.74256e-06 -0.00637936 -6.5706e-09)
(6.16536e-06 -0.00640765 -7.96616e-09)
(6.15921e-06 -0.00640763 -6.11142e-09)
(6.24955e-05 -0.0183184 -2.34216e-09)
(6.24955e-05 -0.0183184 2.40067e-09)
(5.71561e-05 -0.0183992 -2.18183e-09)
(5.71561e-05 -0.0183992 2.23501e-09)
(6.7413e-06 -0.00637935 -2.40092e-09)
(6.7413e-06 -0.00637935 2.45785e-09)
(6.15805e-06 -0.00640762 -2.2354e-09)
(6.15806e-06 -0.00640762 2.28655e-09)
(6.24972e-05 -0.0183184 5.99609e-09)
(6.25002e-05 -0.0183185 7.33466e-09)
(5.71577e-05 -0.0183992 5.58614e-09)
(5.71604e-05 -0.0183992 6.83456e-09)
(6.74255e-06 -0.00637936 6.61769e-09)
(6.74923e-06 -0.00637938 8.60578e-09)
(6.15921e-06 -0.00640763 6.15517e-09)
(6.16534e-06 -0.00640765 7.995e-09)
(6.25143e-05 -0.0183185 1.61351e-08)
(6.2576e-05 -0.0183186 0.922722)
(5.71733e-05 -0.0183993 1.48808e-08)
(5.72299e-05 -0.0183993 0.923023)
(6.79212e-06 -0.0063794 4.45179e-10)
(6.96291e-06 -0.00637941 0.91064)
(6.20472e-06 -0.00640767 4.81398e-10)
(6.36134e-06 -0.00640767 0.910933)
(7.44452e-05 -0.018137 -0.921514)
(7.43724e-05 -0.0181369 -1.87754e-08)
(6.83113e-05 -0.0182312 -0.921825)
(6.82443e-05 -0.0182312 -1.7389e-08)
(8.29764e-06 -0.00631576 -0.909463)
(8.0956e-06 -0.00631576 -2.64754e-10)
(7.60735e-06 -0.00634881 -0.909766)
(7.42144e-06 -0.0063488 -3.47023e-10)
(7.43557e-05 -0.0181369 -8.35001e-09)
(7.43521e-05 -0.0181369 -6.82546e-09)
(6.82289e-05 -0.0182311 -7.81043e-09)
(6.82257e-05 -0.0182311 -6.3758e-09)
(8.04506e-06 -0.00631574 -9.87415e-09)
(8.03715e-06 -0.00631572 -7.55835e-09)
(7.37486e-06 -0.00634878 -9.20588e-09)
(7.36757e-06 -0.00634876 -7.04961e-09)
(7.435e-05 -0.0181368 -2.68874e-09)
(7.435e-05 -0.0181368 2.75471e-09)
(6.82238e-05 -0.0182311 -2.51008e-09)
(6.82238e-05 -0.0182311 2.57151e-09)
(8.03567e-06 -0.0063157 -2.76016e-09)
(8.03567e-06 -0.0063157 2.82456e-09)
(7.36621e-06 -0.00634875 -2.57552e-09)
(7.36621e-06 -0.00634875 2.6353e-09)
(7.43521e-05 -0.0181369 6.88117e-09)
(7.43557e-05 -0.0181369 8.39838e-09)
(6.82257e-05 -0.0182311 6.42425e-09)
(6.82289e-05 -0.0182311 7.85048e-09)
(8.03714e-06 -0.00631572 7.61423e-09)
(8.04504e-06 -0.00631574 9.91787e-09)
(7.36756e-06 -0.00634876 7.10102e-09)
(7.37483e-06 -0.00634878 9.24039e-09)
(7.43724e-05 -0.018137 1.88293e-08)
(7.44453e-05 -0.018137 0.921514)
(6.82443e-05 -0.0182312 1.74296e-08)
(6.83114e-05 -0.0182312 0.921825)
(8.09562e-06 -0.00631576 3.11992e-10)
(8.29762e-06 -0.00631577 0.909463)
(7.42144e-06 -0.0063488 3.73037e-10)
(7.60733e-06 -0.00634881 0.909766)
(8.79789e-05 -0.0179262 -0.920261)
(8.78934e-05 -0.0179261 -2.17584e-08)
(8.09988e-05 -0.0180354 -0.920586)
(8.09198e-05 -0.0180354 -2.022e-08)
(9.81903e-06 -0.00624174 -0.908242)
(9.58171e-06 -0.00624174 -5.062e-11)
(9.03382e-06 -0.00628011 -0.908559)
(8.81468e-06 -0.00628011 -1.67962e-10)
(8.78738e-05 -0.0179261 -9.5e-09)
(8.78696e-05 -0.017926 -7.78198e-09)
(8.09017e-05 -0.0180353 -8.90897e-09)
(8.08979e-05 -0.0180353 -7.29467e-09)
(9.52252e-06 -0.00624172 -1.13009e-08)
(9.51322e-06 -0.00624169 -8.64504e-09)
(8.75993e-06 -0.00628009 -1.05697e-08)
(8.75134e-06 -0.00628006 -8.08664e-09)
(8.78671e-05 -0.017926 -3.07127e-09)
(8.78671e-05 -0.017926 3.14276e-09)
(8.08956e-05 -0.0180352 -2.87475e-09)
(8.08956e-05 -0.0180352 2.9431e-09)
(9.51148e-06 -0.00624167 -3.15718e-09)
(9.51149e-06 -0.00624167 3.22728e-09)
(8.74975e-06 -0.00628005 -2.95363e-09)
(8.74975e-06 -0.00628005 3.02033e-09)
(8.78696e-05 -0.017926 7.84931e-09)
(8.78738e-05 -0.0179261 9.56406e-09)
(8.08979e-05 -0.0180353 7.3526e-09)
(8.09018e-05 -0.0180353 8.96489e-09)
(9.51321e-06 -0.00624169 8.71091e-09)
(9.5225e-06 -0.00624172 1.13616e-08)
(8.75134e-06 -0.00628006 8.14834e-09)
(8.75991e-06 -0.00628009 1.06185e-08)
(8.78935e-05 -0.0179261 2.18223e-08)
(8.7979e-05 -0.0179262 0.920261)
(8.09199e-05 -0.0180354 2.02736e-08)
(8.09988e-05 -0.0180354 0.920586)
(9.58175e-06 -0.00624174 1.12478e-10)
(9.81901e-06 -0.00624175 0.908242)
(8.8147e-06 -0.00628011 2.11247e-10)
(9.03379e-06 -0.00628011 0.908559)
(0.000103276 -0.017683 -0.918955)
(0.000103176 -0.0176829 -2.5017e-08)
(9.54033e-05 -0.0178088 -0.919283)
(9.5311e-05 -0.0178087 -2.33347e-08)
(1.15372e-05 -0.00615624 -0.906969)
(1.12604e-05 -0.00615624 2.48392e-10)
(1.06523e-05 -0.00620049 -0.907289)
(1.03959e-05 -0.00620048 9.00313e-11)
(0.000103154 -0.0176829 -1.07325e-08)
(0.000103148 -0.0176828 -8.82163e-09)
(9.52898e-05 -0.0178087 -1.01005e-08)
(9.52852e-05 -0.0178086 -8.29543e-09)
(1.11916e-05 -0.00615621 -1.28501e-08)
(1.11807e-05 -0.00615618 -9.82497e-09)
(1.03319e-05 -0.00620046 -1.20583e-08)
(1.03219e-05 -0.00620043 -9.22119e-09)
(0.000103145 -0.0176828 -3.48709e-09)
(0.000103145 -0.0176828 3.55784e-09)
(9.52825e-05 -0.0178086 -3.27523e-09)
(9.52825e-05 -0.0178086 3.34441e-09)
(1.11787e-05 -0.00615616 -3.5888e-09)
(1.11787e-05 -0.00615616 3.66052e-09)
(1.032e-05 -0.00620041 -3.36867e-09)
(1.032e-05 -0.00620041 3.43912e-09)
(0.000103148 -0.0176828 8.88285e-09)
(0.000103154 -0.0176829 1.08152e-08)
(9.52852e-05 -0.0178086 8.35131e-09)
(9.52899e-05 -0.0178087 1.01807e-08)
(1.11807e-05 -0.00615618 9.89408e-09)
(1.11916e-05 -0.00615621 1.29193e-08)
(1.03219e-05 -0.00620043 9.28987e-09)
(1.03319e-05 -0.00620046 1.21214e-08)
(0.000103176 -0.0176829 2.51017e-08)
(0.000103276 -0.017683 0.918955)
(9.53111e-05 -0.0178087 2.34146e-08)
(9.54034e-05 -0.0178088 0.919283)
(1.12605e-05 -0.00615624 -1.7909e-10)
(1.15372e-05 -0.00615624 0.906969)
(1.03959e-05 -0.00620049 -3.23308e-11)
(1.06523e-05 -0.00620049 0.907289)
(0.000120416 -0.0174043 -0.917609)
(0.000120301 -0.0174043 -2.85599e-08)
(0.000111614 -0.0175483 -0.917955)
(0.000111507 -0.0175482 -2.67354e-08)
(1.346e-05 -0.00605812 -0.905657)
(1.31395e-05 -0.00605812 6.40523e-10)
(1.2472e-05 -0.00610882 -0.905995)
(1.21739e-05 -0.00610881 4.33062e-10)
(0.000120274 -0.0174042 -1.20395e-08)
(0.000120268 -0.0174041 -9.92659e-09)
(0.000111482 -0.0175481 -1.13696e-08)
(0.000111477 -0.0175481 -9.37009e-09)
(1.30599e-05 -0.00605809 -1.45136e-08)
(1.30473e-05 -0.00605806 -1.10846e-08)
(1.20998e-05 -0.00610878 -1.36662e-08)
(1.20881e-05 -0.00610875 -1.04417e-08)
(0.000120265 -0.0174041 -3.92849e-09)
(0.000120265 -0.0174041 3.99756e-09)
(0.000111473 -0.017548 -3.70396e-09)
(0.000111473 -0.017548 3.77236e-09)
(1.3045e-05 -0.00605804 -4.04939e-09)
(1.3045e-05 -0.00605804 4.11797e-09)
(1.20859e-05 -0.00610874 -3.8141e-09)
(1.2086e-05 -0.00610874 3.88624e-09)
(0.000120268 -0.0174041 9.97885e-09)
(0.000120274 -0.0174042 1.21096e-08)
(0.000111477 -0.0175481 9.41641e-09)
(0.000111482 -0.0175481 1.14579e-08)
(1.30473e-05 -0.00605806 1.11463e-08)
(1.30599e-05 -0.00605809 1.45674e-08)
(1.20881e-05 -0.00610875 1.0509e-08)