/*--------------------------------*- C++ -*----------------------------------*\
  =========                 |
  \\      /  F ield         | OpenFOAM: The Open Source CFD Toolbox
   \\    /   O peration     | Website:  https://openfoam.org
    \\  /    A nd           | Version:  9
     \\/     M anipulation  |
\*---------------------------------------------------------------------------*/
FoamFile
{
    format      ascii;
    class       volScalarField;
    location    "4.5";
    object      nut;
}
// * * * * * * * * * * * * * * * * * * * * * * * * * * * * * * * * * * * * * //

dimensions      [0 2 -1 0 0 0 0];

internalField   nonuniform List<scalar> 
36360
(
0.00518226
0.00483128
0.00368984
0.00345822
0.000705174
0.000661487
0.000455605
0.000482204
0.00407723
0.003728
0.00261293
0.00206788
0.000522679
0.000409876
0.000327693
0.000234703
0.00369095
0.00369086
0.00180426
0.00180439
0.000352477
0.000352428
0.000202077
0.000202062
0.00372687
0.0040744
0.00206728
0.00261052
0.000409692
0.000522384
0.000234615
0.000327425
0.00482692
0.00517627
0.00345421
0.00368409
0.000661116
0.000704731
0.000481832
0.000455154
0.00721272
0.00695175
0.00627922
0.00596309
0.000941522
0.000881163
0.000843187
0.000784656
0.0063649
0.00613274
0.00530027
0.00503052
0.000766482
0.000687764
0.0006595
0.000568201
0.00610184
0.00610134
0.00500778
0.00500743
0.000650028
0.000649964
0.000523198
0.000523136
0.00613093
0.00636141
0.00502901
0.00529709
0.000687572
0.000766177
0.000568012
0.0006592
0.00694664
0.00720591
0.00595835
0.00627285
0.000880779
0.000941079
0.00078428
0.00084275
0.00880462
0.00861511
0.00804929
0.00782864
0.00109056
0.00103175
0.00102166
0.000961833
0.00812595
0.00792305
0.00729796
0.00708437
0.000931219
0.000865815
0.000855151
0.000784333
0.00787385
0.00787316
0.00704331
0.0070427
0.000834926
0.000834859
0.000750764
0.000750699
0.00792082
0.00812197
0.00708233
0.0072942
0.000865618
0.000930908
0.000784138
0.000854842
0.00860937
0.00879698
0.00782319
0.00804203
0.00103135
0.00109009
0.000961442
0.0010212
0.0100924
0.00994772
0.0094813
0.00931638
0.00120421
0.00114767
0.00115081
0.00109313
0.00951316
0.00932137
0.00885798
0.00866116
0.00105583
0.000997469
0.000997428
0.000935987
0.00926063
0.00925983
0.00860517
0.00860441
0.00096994
0.000969872
0.000906997
0.000906929
0.00931889
0.00950886
0.0086588
0.00885382
0.000997271
0.00105552
0.000935789
0.000997115
0.00994156
0.0100841
0.00931041
0.00947332
0.00114727
0.00120374
0.00109273
0.00115035
0.0111339
0.0110205
0.0106391
0.0105112
0.00129403
0.00123962
0.00125162
0.00119616
0.01062
0.0104354
0.0100952
0.00990706
0.00115365
0.00109978
0.00110752
0.00105162
0.0103687
0.0103678
0.00984261
0.00984178
0.00107439
0.00107432
0.00102526
0.00102519
0.0104328
0.0106155
0.00990449
0.0100908
0.00109959
0.00115334
0.00105142
0.00110721
0.0110141
0.0111253
0.0105049
0.0106307
0.00123922
0.00129356
0.00119576
0.00125114
0.0119789
0.0118891
0.0115766
0.0114755
0.00136598
0.00131345
0.0013319
0.00127846
0.0115116
0.0113328
0.0110874
0.0109057
0.00123172
0.00118101
0.00119478
0.00114261
0.0112634
0.0112625
0.0108372
0.0108363
0.00115714
0.00115707
0.00111803
0.00111797
0.0113301
0.0115069
0.0109031
0.0110829
0.00118082
0.00123142
0.00114242
0.00119447
0.0118825
0.01197
0.0114689
0.0115679
0.00131306
0.00136551
0.00127806
0.00133143
0.0126671
0.0125964
0.0123389
0.0122591
0.00142408
0.00137318
0.00139651
0.00134483
0.0122347
0.0120606
0.0118899
0.0117134
0.00129463
0.00124625
0.0012648
0.00121533
0.0119904
0.0119895
0.0116433
0.0116423
0.0012235
0.00122344
0.00119206
0.001192
0.0120579
0.0122301
0.0117106
0.0118852
0.00124606
0.00129433
0.00121514
0.00126449
0.0125898
0.0126581
0.0122525
0.0123299
0.00137278
0.00142362
0.00134443
0.00139604
0.0132291
0.0131734
0.0129606
0.0128977
0.00147121
0.00142165
0.00144882
0.00139862
0.0128236
0.0126534
0.0125422
0.0123699
0.00134557
0.00129899
0.00132138
0.00127396
0.0125834
0.0125825
0.0122996
0.0122987
0.0012771
0.00127704
0.00125167
0.0012516
0.0126507
0.012819
0.0123672
0.0125375
0.0012988
0.00134528
0.00127377
0.00132108
0.0131667
0.01322
0.012891
0.0129515
0.00142127
0.00147075
0.00139823
0.00144836
0.013688
0.0136443
0.0134685
0.0134189
0.00150945
0.00146102
0.00149128
0.00144231
0.013304
0.0131371
0.013074
0.0129053
0.00138689
0.00134171
0.00136726
0.00132142
0.0130673
0.0130664
0.0128354
0.0128344
0.00132051
0.00132045
0.00129989
0.00129983
0.0131343
0.0132993
0.0129025
0.0130693
0.00134153
0.0013866
0.00132124
0.00136697
0.0136375
0.0136788
0.0134122
0.0134593
0.00146064
0.001509
0.00144193
0.00149082
0.0140625
0.0140284
0.0138831
0.0138443
0.00154045
0.00149295
0.00152573
0.00147778
0.0136956
0.0135316
0.0135078
0.0133422
0.00142038
0.00137631
0.00140447
0.00135988
0.0134622
0.0134613
0.0132725
0.0132716
0.00135567
0.00135561
0.00133897
0.00133891
0.0135288
0.0136909
0.0133394
0.0135031
0.00137613
0.00142009
0.0013597
0.00140418
0.0140217
0.0140532
0.0138375
0.0138739
0.00149258
0.00154
0.0014774
0.00152527
0.0143667
0.0143405
0.0142208
0.0141907
0.00156545
0.00151872
0.00155359
0.00150648
0.0140138
0.0138523
0.0138609
0.0136981
0.0014474
0.00140422
0.00143458
0.00139097
0.0137833
0.0137824
0.0136288
0.0136279
0.00138404
0.00138398
0.00137058
0.00137052
0.0138495
0.0140091
0.0136953
0.0138562
0.00140405
0.00144712
0.0013908
0.00143429
0.0143337
0.0143574
0.0141839
0.0142115
0.00151835
0.00156501
0.00150611
0.00155314
0.0146121
0.0145923
0.0144943
0.0144713
0.00158544
0.00153934
0.00157598
0.00152957
0.0142706
0.0141112
0.0141471
0.0139865
0.00146905
0.00142659
0.00145879
0.00141599
0.0140428
0.0140419
0.0139177
0.0139168
0.00140676
0.00140671
0.001396
0.00139594
0.0141084
0.0142659
0.0139837
0.0141423
0.00142642
0.00146877
0.00141582
0.00145851
0.0145855
0.0146027
0.0144645
0.0144849
0.00153896
0.001585
0.00152919
0.00157553
0.0148075
0.0147929
0.0147137
0.0146964
0.00160119
0.00155559
0.00159376
0.00154791
0.0144755
0.0143178
0.0143768
0.0142181
0.00148615
0.00144428
0.00147807
0.00143593
0.0142501
0.0142491
0.01415
0.0141491
0.00142474
0.00142469
0.00141625
0.00141619
0.014315
0.0144707
0.0142153
0.0143721
0.00144411
0.00148587
0.00143575
0.00147779
0.0147861
0.0147981
0.0146896
0.0147043
0.00155522
0.00160075
0.00154754
0.00159331
0.0149604
0.0149499
0.014887
0.0148744
0.00161333
0.00156814
0.00160763
0.00156224
0.014636
0.0144798
0.0145586
0.0144015
0.00149939
0.00145801
0.00149317
0.00145156
0.0144129
0.0144119
0.0143341
0.0143332
0.0014387
0.00143864
0.00143214
0.00143208
0.014477
0.0146313
0.0143987
0.0145539
0.00145784
0.00149911
0.00145138
0.00149289
0.0149431
0.0149509
0.0148675
0.0148775
0.00156778
0.00161289
0.00156188
0.00160719
0.0150764
0.0150694
0.0150207
0.0150119
0.00162235
0.0015775
0.00161816
0.00157314
0.0147584
0.0146035
0.0146994
0.0145437
0.00150932
0.00146833
0.00150469
0.00146352
0.0145373
0.0145364
0.0144771
0.0144761
0.00144921
0.00144915
0.00144431
0.00144425
0.0146007
0.0147536
0.0145409
0.0146946
0.00146816
0.00150904
0.00146335
0.00150441
0.0150626
0.0150669
0.0150051
0.0150112
0.00157713
0.00162191
0.00157277
0.00161771
0.0151602
0.0151561
0.0151201
0.0151144
0.00162867
0.00158407
0.00162578
0.00158106
0.0148474
0.0146937
0.0148045
0.0146501
0.00151636
0.0014757
0.00151313
0.00147231
0.0146282
0.0146272
0.0145842
0.0145832
0.00145673
0.00145667
0.00145327
0.00145321
0.0146909
0.0148427
0.0146473
0.0147997
0.00147553
0.00151609
0.00147214
0.00151285
0.0151492
0.0151507
0.0151076
0.0151105
0.0015837
0.00162822
0.00158069
0.00162534
0.0152156
0.015214
0.0151892
0.0151863
0.00163259
0.0015882
0.00163086
0.00158637
0.0149071
0.0147542
0.0148784
0.0147249
0.00152088
0.00148048
0.00151887
0.00147835
0.0146891
0.0146881
0.0146595
0.0146586
0.00146163
0.00146157
0.00145944
0.00145938
0.0147514
0.0149024
0.0147221
0.0148736
0.00148031
0.00152061
0.00147818
0.0015186
0.0152071
0.0152061
0.0151794
0.0151797
0.00158784
0.00163215
0.00158601
0.00163042
0.0152457
0.0152461
0.0152316
0.0152308
0.00163439
0.00159015
0.0016337
0.00158938
0.0149405
0.0147884
0.0149246
0.0147719
0.00152315
0.00148296
0.00152224
0.00148194
0.0147236
0.0147227
0.0147068
0.0147059
0.00146422
0.00146416
0.00146315
0.00146309
0.0147856
0.0149358
0.0147691
0.0149198
0.00148279
0.00152288
0.00148177
0.00152196
0.0152392
0.0152361
0.0152239
0.015222
0.00158979
0.00163395
0.00158902
0.00163325
0.0152525
0.0152546
0.0152496
0.0152508
0.00163426
0.00159013
0.00163449
0.00159031
0.0149499
0.0147985
0.0149458
0.0147938
0.00152339
0.00148335
0.00152346
0.00148336
0.014734
0.0147331
0.0147292
0.0147282
0.00146469
0.00146463
0.00146466
0.00146461
0.0147957
0.0149451
0.014791
0.014941
0.00148318
0.00152311
0.00148319
0.00152319
0.0152477
0.0152429
0.0152439
0.01524
0.00158977
0.00163382
0.00158994
0.00163405
0.0152382
0.015242
0.0152458
0.0152487
0.00163238
0.00158833
0.00163351
0.00158942
0.0149378
0.0147871
0.0149441
0.014793
0.00152182
0.00148193
0.00152281
0.00148286
0.014723
0.014722
0.0147287
0.0147277
0.00146333
0.00146328
0.00146424
0.00146418
0.0147842
0.014933
0.0147902
0.0149394
0.00148176
0.00152155
0.00148269
0.00152254
0.0152351
0.0152286
0.0152418
0.0152362
0.00158797
0.00163195
0.00158906
0.00163307
0.0152043
0.0152096
0.0152215
0.0152259
0.00162886
0.00158484
0.00163077
0.00158674
0.0149054
0.0147552
0.0149215
0.0147709
0.00151851
0.00147872
0.00152032
0.00148049
0.0146913
0.0146904
0.0147069
0.0147059
0.00146018
0.00146012
0.00146192
0.00146186
0.0147524
0.0149006
0.0147681
0.0149168
0.00147855
0.00151824
0.00148032
0.00152005
0.0152027
0.0151947
0.015219
0.0152119
0.00158448
0.00162842
0.00158637
0.00163033
0.0151517
0.0151585
0.0151781
0.015184
0.00162379
0.00157978
0.00162647
0.00158245
0.0148541
0.0147042
0.0148796
0.0147294
0.00151361
0.00147389
0.00151621
0.00147646
0.0146406
0.0146396
0.0146655
0.0146646
0.00145538
0.00145532
0.00145793
0.00145788
0.0147014
0.0148494
0.0147266
0.0148748
0.00147372
0.00151334
0.00147629
0.00151594
0.0151516
0.0151421
0.0151771
0.0151685
0.00157943
0.00162336
0.00158209
0.00162603
0.0150812
0.0150895
0.0151165
0.0151239
0.00161724
0.00157321
0.00162065
0.00157663
0.0147846
0.0146349
0.0148191
0.0146691
0.00150718
0.0014675
0.00151054
0.00147084
0.0145714
0.0145705
0.0146055
0.0146046
0.00144901
0.00144896
0.00145234
0.00145229
0.0146321
0.0147799
0.0146663
0.0148144
0.00146733
0.00150691
0.00147067
0.00151027
0.0150827
0.0150717
0.015117
0.0151069
0.00157286
0.00161681
0.00157628
0.00162022
0.0149934
0.0150032
0.0150373
0.0150462
0.00160925
0.00156518
0.00161338
0.00156933
0.0146974
0.0145478
0.0147407
0.0145909
0.00149926
0.0014596
0.00150336
0.00146369
0.0144845
0.0144835
0.0145274
0.0145264
0.00144112
0.00144107
0.00144521
0.00144515
0.014545
0.0146927
0.0145881
0.014736
0.00145944
0.00149899
0.00146353
0.00150309
0.0149964
0.0149839
0.0150394
0.0150278
0.00156483
0.00160882
0.00156897
0.00161295
0.0148885
0.0149
0.0149409
0.0149514
0.00159985
0.0015557
0.00160468
0.00156057
0.0145929
0.0144432
0.0146448
0.014495
0.00148988
0.00145021
0.00149471
0.00145505
0.01438
0.0143791
0.0144316
0.0144307
0.00143173
0.00143168
0.00143657
0.00143651
0.0144405
0.0145882
0.0144922
0.0146401
0.00145005
0.00148961
0.00145488
0.00149444
0.0148932
0.0148791
0.0149446
0.0149314
0.00155535
0.00159942
0.00156022
0.00160425
0.0147666
0.0147798
0.0148275
0.0148397
0.00158904
0.00154479
0.00159457
0.00155038
0.0144712
0.0143213
0.0145317
0.0143818
0.00147904
0.00143935
0.0014846
0.00144492
0.0142581
0.0142572
0.0143184
0.0143175
0.00142085
0.0014208
0.00142643
0.00142638
0.0143186
0.0144665
0.014379
0.014527
0.00143919
0.00147878
0.00144476
0.00148434
0.0147731
0.0147573
0.0148329
0.0148181
0.00154445
0.00158862
0.00155003
0.00159415
0.0146278
0.0146427
0.0146972
0.0147111
0.00157681
0.00153244
0.00158306
0.00153875
0.0143321
0.0141819
0.0144013
0.0142511
0.00146675
0.001427
0.00147304
0.00143332
0.0141187
0.0141178
0.0141878
0.0141869
0.00140847
0.00140842
0.00141481
0.00141475
0.0141792
0.0143275
0.0142484
0.0143967
0.00142684
0.00146649
0.00143316
0.00147278
0.014636
0.0146185
0.0147044
0.0146879
0.0015321
0.0015764
0.0015384
0.00158264
0.0144717
0.0144884
0.0145498
0.0145654
0.00156317
0.00151864
0.00157013
0.00152567
0.0141756
0.0140249
0.0142536
0.014103
0.00145297
0.00141313
0.00146
0.00142021
0.0139616
0.0139607
0.0140396
0.0140387
0.00139456
0.0013945
0.00140166
0.00140161
0.0140222
0.014171
0.0141002
0.014249
0.00141297
0.00145271
0.00142005
0.00145975
0.0144818
0.0144625
0.0145588
0.0145405
0.0015183
0.00156275
0.00152533
0.00156971
0.0142981
0.0143165
0.014385
0.0144024
0.00154806
0.00150334
0.00155576
0.00151113
0.014001
0.0138497
0.0140881
0.0139369
0.00143766
0.0013977
0.00144547
0.00140557
0.0137864
0.0137855
0.0138735
0.0138726
0.00137906
0.00137901
0.00138697
0.00138691
0.013847
0.0139965
0.0139342
0.0140836
0.00139754
0.00143741
0.00140541
0.00144521
0.0143099
0.014289
0.0143958
0.0143759
0.001503
0.00154765
0.00151079
0.00155535
0.0141063
0.0141262
0.0142024
0.0142214
0.00153146
0.0014865
0.00153991
0.00149507
0.0138079
0.0136558
0.0139044
0.0137525
0.00142078
0.00138065
0.00142938
0.00138934
0.0135924
0.0135915
0.013689
0.0136881
0.00136193
0.00136188
0.00137066
0.00137061
0.0136531
0.0138034
0.0137498
0.0138999
0.0013805
0.00142053
0.00138919
0.00142913
0.0141198
0.0140974
0.0142149
0.0141934
0.00148616
0.00153106
0.00149473
0.00153951
0.0138958
0.0139171
0.0140014
0.0140218
0.00151332
0.00146807
0.00152255
0.00147744
0.0135954
0.0134424
0.0137017
0.013549
0.00140224
0.00136191
0.00141168
0.00137146
0.013379
0.0133781
0.0134855
0.0134846
0.00134308
0.00134303
0.00135269
0.00135263
0.0134398
0.013591
0.0135463
0.0136972
0.00136175
0.001402
0.0013713
0.00141143
0.0139107
0.0138871
0.0140154
0.0139925
0.00146774
0.00151292
0.00147711
0.00152215
0.0136658
0.013688
0.0137813
0.0138029
0.00149357
0.00144801
0.00150361
0.00145821
0.0133627
0.0132086
0.0134793
0.0133255
0.00138198
0.00134138
0.0013923
0.00135183
0.0131451
0.0131443
0.013262
0.0132611
0.00132242
0.00132237
0.00133294
0.00133289
0.013206
0.0133583
0.0133229
0.0134749
0.00134122
0.00138174
0.00135168
0.00139205
0.0136818
0.0136572
0.0137966
0.0137726
0.00144769
0.00149318
0.00145788
0.00150322
0.013415
0.0134377
0.0135411
0.0135634
0.00147214
0.0014262
0.00148304
0.00143729
0.0131083
0.0129531
0.0132359
0.0130811
0.00135988
0.00131894
0.00137113
0.00133037
0.0128897
0.0128888
0.0130175
0.0130167
0.00129982
0.00129977
0.00131133
0.00131128
0.0129506
0.0131041
0.0130785
0.0132316
0.00131879
0.00135964
0.00133021
0.00137089
0.0134315
0.0134065
0.0135572
0.0135325
0.00142589
0.00147176
0.00143697
0.00148265
0.0131419
0.0131645
0.0132794
0.0133019
0.00144892
0.00140256
0.00146072
0.00141457
0.0128309
0.0126745
0.0129703
0.0128143
0.00133582
0.00129445
0.00134807
0.00130692
0.0126111
0.0126103
0.0127507
0.0127499
0.00127513
0.00127508
0.00128771
0.00128766
0.012672
0.0128267
0.0128117
0.012966
0.00129431
0.00133559
0.00130678
0.00134783
0.0131584
0.0131336
0.0132958
0.013271
0.00140224
0.00144854
0.00141426
0.00146034
0.0128445
0.0128665
0.0129944
0.0130166
0.00142382
0.00137698
0.00143658
0.00138997
0.0125285
0.0123707
0.0126807
0.0125234
0.00130966
0.00126775
0.00132298
0.00128136
0.0123074
0.0123066
0.0124599
0.0124591
0.00124817
0.00124812
0.00126191
0.00126186
0.0123682
0.0125244
0.0125209
0.0126765
0.0012676
0.00130943
0.00128121
0.00132274
0.0128606
0.0128364
0.0130106
0.0129862
0.00137667
0.00142345
0.00138966
0.0014362
0.0125207
0.0125416
0.0126842
0.0127055
0.00139677
0.00134943
0.0014105
0.00136341
0.0121988
0.0120389
0.012365
0.0122061
0.00128123
0.00123858
0.00129571
0.00125346
0.0119757
0.0119749
0.0121427
0.0121419
0.00121865
0.0012186
0.00123372
0.00123367
0.0120365
0.0121947
0.0122036
0.0123609
0.00123844
0.001281
0.00125331
0.00129548
0.0125359
0.0125128
0.0126997
0.0126762
0.00134912
0.00139641
0.0013631
0.00141013
0.0121693
0.0121876
0.0123465
0.0123664
0.00136801
0.00132001
0.00138253
0.0013349
0.0118377
0.0116747
0.0120203
0.0118588
0.00125026
0.00120652
0.00126606
0.00122291
0.0116114
0.0116106
0.0117954
0.0117946
0.0011861
0.00118605
0.00120276
0.00120271
0.0116724
0.0118338
0.0118565
0.0120163
0.00120638
0.00125004
0.00122277
0.00126583
0.0121821
0.0121617
0.0123608
0.0123387
0.00131971
0.00136766
0.0013346
0.00138217
0.011803
0.0118009
0.0119837
0.0119969
0.00133925
0.00128884
0.00135334
0.00130465
0.0114369
0.0112715
0.011641
0.011476
0.00121589
0.00117068
0.00123358
0.00118912
0.0112102
0.0112094
0.0114129
0.0114122
0.00114976
0.00114972
0.00116842
0.00116837
0.0112694
0.0114332
0.0114737
0.0116372
0.00117055
0.00121567
0.00118898
0.00123337
0.0117957
0.0117957
0.0119914
0.0119763
0.00128856
0.00133891
0.00130436
0.00135299
0.0115132
0.0113455
0.0116367
0.0115871
0.00131539
0.00124828
0.00132671
0.00127134
0.0109806
0.0108335
0.0112138
0.0110524
0.00117451
0.00112971
0.00119645
0.00115086
0.0107829
0.0107822
0.0109948
0.0109941
0.00110909
0.00110904
0.00112991
0.00112987
0.0108315
0.0109772
0.0110503
0.0112102
0.00112959
0.00117431
0.00115073
0.00119624
0.0113406
0.0115064
0.011582
0.0116296
0.00124801
0.00131507
0.00127106
0.00132638
0.00989956
0.00937442
0.00751248
0.00708246
0.00780408
0.00732009
0.00572974
0.00535015
0.00850415
0.00813628
0.00611829
0.00564937
0.00645757
0.00606789
0.00439255
0.00386455
0.00811891
0.00811785
0.00559031
0.00558982
0.00603626
0.00603574
0.00375162
0.00375157
0.0081322
0.00849619
0.0056464
0.00611151
0.00606535
0.00645215
0.00386287
0.00438802
0.00936302
0.00988482
0.00707222
0.00749878
0.0073121
0.00779349
0.00534305
0.00571996
0.0143071
0.0138372
0.0121472
0.0116406
0.0112856
0.0108627
0.00961203
0.00914929
0.0131499
0.012934
0.0108669
0.0105877
0.0101984
0.00998316
0.0083926
0.00810925
0.0129621
0.0129602
0.0106001
0.0105986
0.0100058
0.0100046
0.00811702
0.00811613
0.0129278
0.0131393
0.0105825
0.0108576
0.0099792
0.0101912
0.00810596
0.00838628
0.0138227
0.014289
0.0116277
0.0121309
0.0108525
0.0112726
0.00914024
0.0096003
0.0183143
0.0179111
0.0163651
0.0159304
0.0142835
0.0139358
0.0128387
0.0124558
0.0173441
0.0171953
0.0153104
0.0151346
0.0133984
0.0132503
0.0118628
0.0116885
0.0172294
0.0172268
0.0151678
0.0151655
0.0132742
0.0132726
0.0117138
0.0117124
0.0171875
0.0173311
0.0151275
0.0152985
0.0132452
0.0133896
0.011684
0.0118548
0.0178936
0.0182927
0.0159144
0.0163451
0.0139237
0.0142681
0.0124447
0.0128244
0.0218325
0.0214795
0.0201343
0.0197577
0.0168362
0.016544
0.0156119
0.0152939
0.0209872
0.0208675
0.0192317
0.0190995
0.0160841
0.0159631
0.0147993
0.0146669
0.0208966
0.0208935
0.0191311
0.0191283
0.0159792
0.0159773
0.0146867
0.0146849
0.0208584
0.0209723
0.019091
0.0192177
0.0159573
0.0160742
0.0146614
0.0147899
0.0214595
0.0218078
0.0197389
0.020111
0.0165304
0.0168188
0.015281
0.0155954
0.0248499
0.0245341
0.023399
0.0230657
0.0189747
0.0187248
0.0179515
0.0176816
0.024092
0.023987
0.0226003
0.0224884
0.0183161
0.0182088
0.0172493
0.0171356
0.0240101
0.0240067
0.0225139
0.0225107
0.0182177
0.0182156
0.0171476
0.0171455
0.023977
0.0240757
0.0224787
0.0225846
0.0182024
0.0183054
0.0171294
0.0172389
0.0245122
0.0248228
0.0230447
0.0233729
0.01871
0.0189559
0.0176674
0.0179333
0.0274033
0.0271168
0.0261778
0.0258772
0.0207553
0.0205364
0.0199031
0.0196699
0.0267112
0.0266154
0.0254541
0.0253536
0.020164
0.020065
0.0192804
0.0191772
0.0266337
0.0266301
0.0253737
0.0253702
0.0200689
0.0200666
0.019183
0.0191808
0.0266047
0.0266938
0.0253432
0.0254372
0.0200583
0.0201528
0.0191705
0.0192694
0.0270936
0.0273744
0.0258546
0.0261498
0.0205209
0.0207353
0.0196547
0.0198836
0.0295493
0.0292863
0.0285199
0.0282456
0.0222328
0.0220375
0.0215257
0.0213192
0.0289085
0.0288195
0.0278543
0.0277615
0.0216921
0.0215991
0.0209608
0.0208646
0.0288345
0.0288307
0.0277776
0.0277739
0.0215996
0.0215972
0.0208663
0.020864
0.0288084
0.0288904
0.0277506
0.0278365
0.0215921
0.0216804
0.0208577
0.0209493
0.0292621
0.0295191
0.0282218
0.0284903
0.0220214
0.022212
0.0213034
0.0215053
0.0313462
0.0311021
0.0304843
0.030231
0.0234564
0.0232797
0.0228704
0.0226848
0.0307462
0.0306626
0.0298643
0.0297776
0.0229552
0.022867
0.02235
0.0222591
0.0306754
0.0306715
0.029791
0.0297871
0.0228653
0.0228629
0.0222582
0.0222558
0.0306511
0.0307276
0.0297662
0.0298459
0.0228598
0.0229433
0.022252
0.0223382
0.0310771
0.0313149
0.0302063
0.0304535
0.0232633
0.0234351
0.0226685
0.0228494
0.0328445
0.032616
0.0321258
0.0318896
0.0244675
0.0243058
0.023983
0.023814
0.0322778
0.0321987
0.0315426
0.0314608
0.0239978
0.0239136
0.0234978
0.0234112
0.0322101
0.0322061
0.0314724
0.0314685
0.0239106
0.0239082
0.0234086
0.0234062
0.032187
0.0322587
0.0314492
0.0315237
0.0239063
0.0239857
0.023404
0.0234858
0.0325903
0.0328124
0.0318642
0.032094
0.024289
0.0244457
0.0237973
0.0239614
0.0340894
0.0338735
0.0334921
0.03327
0.0253009
0.0251514
0.0249012
0.0247457
0.0335498
0.0334747
0.0329389
0.0328614
0.0248567
0.0247759
0.0244444
0.0243615
0.0334853
0.0334813
0.032872
0.032868
0.0247721
0.0247696
0.0243578
0.0243553
0.0334628
0.0335304
0.0328496
0.0329197
0.0247685
0.0248445
0.0243541
0.0244321
0.0338474
0.0340565
0.033244
0.0334595
0.0251344
0.0252787
0.0247288
0.0248791
0.0351183
0.0349126
0.0346246
0.0344138
0.0259843
0.0258449
0.0256563
0.0255119
0.0346007
0.0345291
0.0340959
0.0340221
0.0255612
0.0254833
0.0252226
0.025143
0.0345393
0.0345352
0.0340321
0.034028
0.0254791
0.0254766
0.0251386
0.0251361
0.034517
0.034581
0.0340101
0.0340763
0.0254758
0.0255487
0.0251355
0.0252103
0.034886
0.0350848
0.0343874
0.0345913
0.0258276
0.0259618
0.0254948
0.0256339
0.0359623
0.0357649
0.0355574
0.0353559
0.026541
0.0264098
0.0262738
0.0261385
0.0354629
0.0353944
0.0350487
0.0349782
0.0261351
0.0260599
0.0258591
0.0257822
0.0354045
0.0354004
0.0349879
0.0349838
0.0260555
0.026053
0.0257776
0.0257751
0.0353822
0.035443
0.034966
0.0350289
0.0260524
0.0261226
0.0257747
0.0258466
0.0357379
0.0359282
0.035329
0.0355236
0.0263924
0.0265182
0.0261211
0.0262511
0.0366469
0.0364564
0.0363187
0.0361247
0.0269894
0.0268653
0.0267741
0.0266464
0.0361628
0.0360971
0.0358266
0.035759
0.0265978
0.0265249
0.0263751
0.0263007
0.0361072
0.0361031
0.0357688
0.0357646
0.0265206
0.026518
0.0262961
0.0262936
0.0360847
0.0361426
0.0357467
0.0358065
0.0265173
0.0265852
0.0262931
0.0263625
0.0364291
0.0366124
0.0360975
0.0362843
0.0268476
0.0269663
0.0266289
0.0267511
0.0371939
0.0370091
0.036932
0.0367442
0.0273447
0.0272264
0.0271742
0.0270529
0.0367225
0.0366594
0.0364538
0.0363889
0.026965
0.0268942
0.0267883
0.026716
0.0366698
0.0366656
0.0363988
0.0363946
0.0268901
0.0268875
0.0267115
0.026709
0.0366469
0.0367022
0.0363765
0.0364335
0.0268865
0.0269523
0.0267084
0.0267756
0.0369815
0.037159
0.0367167
0.0368971
0.0272087
0.0273214
0.0270352
0.0271509
0.0376209
0.037441
0.0374169
0.0372345
0.0276193
0.0275058
0.0274877
0.0273718
0.0371604
0.0370996
0.0369505
0.036888
0.0272496
0.0271806
0.0271127
0.0270424
0.0371104
0.0371061
0.0368983
0.0368941
0.0271768
0.0271742
0.0270382
0.0270356
0.037087
0.0371399
0.0368755
0.0369301
0.0271729
0.0272367
0.0270347
0.0270999
0.0374132
0.0375857
0.0372067
0.0373817
0.0274879
0.0275957
0.0273539
0.0274643
0.0379429
0.037767
0.0377897
0.0376116
0.0278232
0.0277138
0.0277257
0.0276142
0.0374914
0.0374327
0.0373332
0.0372729
0.0274618
0.0273945
0.0273598
0.0272913
0.0374439
0.0374397
0.0372836
0.0372793
0.0273911
0.0273885
0.0272875
0.0272849
0.0374201
0.0374708
0.0372603
0.0373126
0.0273868
0.0274489
0.0272836
0.0273469
0.0377389
0.0379073
0.0375836
0.0377541
0.0276957
0.0277995
0.0275962
0.0277021
0.0381718
0.0379993
0.0380637
0.0378893
0.0279648
0.0278587
0.0278975
0.0277896
0.0377281
0.0376713
0.0376155
0.0375573
0.0276103
0.0275445
0.0275392
0.0274722
0.037683
0.0376787
0.0375684
0.0375641
0.0275415
0.0275389
0.0274688
0.0274662
0.0376585
0.0377073
0.0375446
0.0375948
0.0275367
0.0275974
0.0274645
0.0275262
0.0379711
0.038136
0.0378611
0.0380279
0.0278406
0.027941
0.0277715
0.0278737
0.0383166
0.0381471
0.0382495
0.0380784
0.0280502
0.027947
0.0280105
0.0279056
0.0378799
0.0378251
0.0378088
0.0377524
0.0277021
0.0276377
0.0276585
0.0275929
0.0378376
0.0378333
0.0377641
0.0377598
0.0276351
0.0276324
0.0275899
0.0275873
0.0378123
0.037859
0.0377397
0.037788
0.0276298
0.0276891
0.0275851
0.0276455
0.0381187
0.0382806
0.0380501
0.0382135
0.0279288
0.0280262
0.0278874
0.0279866
0.0383879
0.0382207
0.0383565
0.0381878
0.028086
0.0279849
0.02807
0.0279676
0.0379563
0.0379028
0.0379214
0.0378668
0.0277418
0.0276786
0.0277233
0.0276594
0.0379155
0.0379112
0.0378792
0.0378749
0.0276764
0.0276738
0.027657
0.0276544
0.03789
0.0379354
0.037854
0.0379005
0.0276708
0.0277288
0.0276516
0.0277103
0.0381923
0.0383517
0.0381593
0.0383203
0.0279667
0.028062
0.0279494
0.028046
0.0383899
0.0382248
0.0383923
0.038226
0.0280753
0.0279761
0.0280822
0.0279819
0.0379631
0.0379112
0.0379626
0.0379095
0.0277352
0.0276734
0.0277398
0.027677
0.0379247
0.0379204
0.0379224
0.0379181
0.0276718
0.0276692
0.0276749
0.0276723
0.0378984
0.0379421
0.0378967
0.0379417
0.0276655
0.0277222
0.0276691
0.0277267
0.0381963
0.0383537
0.0381975
0.0383561
0.0279578
0.0280513
0.0279637
0.0280582
0.0383286
0.0381653
0.0383622
0.0381977
0.0280222
0.0279244
0.02805
0.0279513
0.0379057
0.0378551
0.0379366
0.0378849
0.0276851
0.0276243
0.0277108
0.0276491
0.0378692
0.0378649
0.0378983
0.037894
0.0276232
0.0276206
0.0276476
0.0276449
0.0378423
0.0378847
0.037872
0.0379156
0.0276165
0.0276721
0.0276413
0.0276978
0.0381368
0.0382924
0.0381692
0.0383259
0.0279062
0.0279981
0.027933
0.0280259
0.038208
0.0380461
0.0382708
0.0381079
0.027929
0.0278325
0.0279765
0.0278792
0.0377882
0.0377388
0.0378487
0.0377983
0.0275943
0.0275345
0.0276401
0.0275794
0.0377535
0.0377492
0.0378123
0.037808
0.0275339
0.0275313
0.0275783
0.0275757
0.037726
0.0377673
0.0377854
0.0378278
0.0275267
0.0275813
0.0275716
0.0276271
0.0380177
0.0381719
0.0380795
0.0382345
0.0278143
0.027905
0.027861
0.0279525
0.0380307
0.0378701
0.0381216
0.0379601
0.0277976
0.0277021
0.0278641
0.0277679
0.0376135
0.0375652
0.0377024
0.037653
0.0274648
0.0274057
0.0275297
0.0274699
0.0375805
0.0375762
0.0376677
0.0376634
0.0274056
0.027403
0.0274693
0.0274667
0.0375525
0.0375927
0.0376402
0.0376815
0.0273979
0.0274518
0.0274621
0.0275168
0.0378418
0.0379947
0.0379317
0.0380854
0.027684
0.0277737
0.0277497
0.0278401
0.0377988
0.0376392
0.0379168
0.0377565
0.0276293
0.0275346
0.0277141
0.0276188
0.0373835
0.0373361
0.0374999
0.0374515
0.0272976
0.0272392
0.0273813
0.0273221
0.037352
0.0373477
0.0374667
0.0374624
0.0272395
0.0272369
0.027322
0.0273194
0.0373234
0.0373628
0.0374388
0.0374791
0.0272315
0.0272847
0.0273144
0.0273683
0.0376111
0.037763
0.0377282
0.0378808
0.0275166
0.0276055
0.0276007
0.0276902
0.0375132
0.0373545
0.037658
0.0374986
0.0274247
0.0273306
0.0275276
0.027433
0.0370994
0.0370527
0.0372427
0.0371952
0.0270936
0.0270357
0.0271956
0.0271371
0.0370691
0.0370649
0.037211
0.0372067
0.0270365
0.0270339
0.0271374
0.0271348
0.0370401
0.0370788
0.0371825
0.0372221
0.027028
0.0270808
0.0271294
0.0271828
0.0373266
0.0374777
0.0374705
0.0376223
0.0273127
0.0274011
0.027415
0.0275039
0.0371744
0.0370163
0.0373458
0.0371872
0.0271841
0.0270903
0.027305
0.0272109
0.0367613
0.0367153
0.0369316
0.0368848
0.026853
0.0267955
0.0269734
0.0269152
0.0367321
0.0367279
0.0369011
0.0368969
0.0267966
0.026794
0.0269159
0.0269134
0.0367027
0.0367409
0.0368722
0.0369111
0.0267878
0.0268403
0.0269076
0.0269606
0.0369887
0.0371393
0.0371594
0.0373104
0.0270726
0.0271607
0.0271931
0.0272815
0.0367819
0.0366243
0.0369803
0.0368222
0.0269073
0.0268137
0.0270464
0.0269525
0.0363689
0.0363233
0.0365666
0.0365202
0.0265755
0.0265181
0.0267144
0.0266565
0.0363406
0.0363364
0.036537
0.0365328
0.0265196
0.0265171
0.0266576
0.026655
0.0363109
0.0363487
0.0365078
0.0365463
0.0265106
0.0265629
0.0266489
0.0267018
0.0365969
0.0367472
0.0367947
0.0369453
0.0267961
0.0268842
0.0269349
0.0270231
0.0363347
0.0361772
0.0365607
0.0364029
0.0265936
0.0264999
0.0267513
0.0266574
0.0359211
0.0358757
0.0361467
0.0361007
0.0262605
0.0262031
0.0264183
0.0263605
0.0358934
0.0358893
0.0361179
0.0361137
0.0262048
0.0262023
0.0263619
0.0263593
0.0358634
0.0359012
0.0360884
0.0361266
0.0261955
0.026248
0.0263529
0.0264058
0.0361502
0.0363005
0.0363757
0.0365262
0.0264826
0.0265708
0.02664
0.0267283
0.035831
0.0356733
0.0360856
0.0359278
0.0262421
0.0261478
0.0264189
0.0263248
0.035416
0.0353705
0.0356706
0.0356247
0.0259067
0.025849
0.0260841
0.0260262
0.0353886
0.0353845
0.0356422
0.0356381
0.025851
0.0258486
0.0260278
0.0260253
0.0353584
0.0353963
0.0356125
0.0356508
0.0258416
0.0258944
0.0260187
0.0260718
0.0356467
0.0357974
0.035901
0.0360516
0.0261308
0.0262196
0.0263076
0.0263963
0.0352684
0.0351101
0.0355529
0.0353947
0.0258512
0.025756
0.026048
0.0259531
0.034851
0.0348053
0.035136
0.0350899
0.0255125
0.0254544
0.0257105
0.0256521
0.0348237
0.0348197
0.0351078
0.0351038
0.0254567
0.0254542
0.025654
0.0256516
0.0347934
0.0348317
0.0350779
0.0351165
0.0254471
0.0255004
0.0256447
0.0256982
0.0350839
0.0352354
0.0353683
0.0355195
0.0257392
0.0258291
0.0259361
0.0260257
0.0346438
0.0344843
0.0349599
0.0348007
0.025419
0.0253224
0.0256367
0.0255407
0.034223
0.0341767
0.03454
0.0344935
0.025076
0.0250172
0.0252954
0.0252366
0.0341954
0.0341914
0.0345118
0.0345078
0.0250197
0.0250173
0.0252387
0.0252363
0.034165
0.0342039
0.0344817
0.0345208
0.02501
0.0250641
0.0252293
0.0252834
0.0344587
0.0346115
0.0347747
0.0349271
0.0253059
0.0253973
0.025524
0.0256148
0.0339532
0.0337921
0.0343029
0.0341424
0.0249432
0.0248447
0.0251832
0.0250856
0.0335276
0.0334805
0.033879
0.0338318
0.0245945
0.0245347
0.0248369
0.0247771
0.0334995
0.0334956
0.0338504
0.0338464
0.0245375
0.0245351
0.0247795
0.0247771
0.033469
0.033509
0.0338202
0.0338602
0.0245276
0.0245828
0.02477
0.0248251
0.033767
0.0339216
0.034117
0.0342709
0.0248285
0.024922
0.0250692
0.0251617
0.0331916
0.0330281
0.0335776
0.0334152
0.0244204
0.0243194
0.0246844
0.0245846
0.0327597
0.0327115
0.0331483
0.0331001
0.0240646
0.0240036
0.0243317
0.0242709
0.0327308
0.032727
0.0331189
0.033115
0.0240066
0.0240043
0.0242735