/*--------------------------------*- C++ -*----------------------------------*\
  =========                 |
  \\      /  F ield         | OpenFOAM: The Open Source CFD Toolbox
   \\    /   O peration     | Website:  https://openfoam.org
    \\  /    A nd           | Version:  9
     \\/     M anipulation  |
\*---------------------------------------------------------------------------*/
FoamFile
{
    format      ascii;
    class       volScalarField;
    location    "4.5";
    object      p;
}
// * * * * * * * * * * * * * * * * * * * * * * * * * * * * * * * * * * * * * //

dimensions      [0 2 -2 0 0 0 0];

internalField   nonuniform List<scalar> 
36360
(
20.1254
20.0819
20.1189
20.0863
20.0921
20.1075
20.0946
20.102
20.0991
20.1004
20.0997
20.1005
20.099
20.0992
20.0984
20.0989
20.1004
20.1004
20.1005
20.1005
20.0993
20.0993
20.099
20.099
20.1004
20.0991
20.1005
20.0997
20.0992
20.099
20.0989
20.0984
20.0819
20.1254
20.0863
20.1189
20.1075
20.0921
20.102
20.0946
20.1099
20.095
20.117
20.0894
20.069
20.13
20.0809
20.1192
20.1001
20.0994
20.0994
20.1
20.101
20.0984
20.0999
20.0989
20.0994
20.0994
20.1001
20.1001
20.0983
20.0983
20.099
20.099
20.0994
20.1001
20.1
20.0994
20.0984
20.101
20.0989
20.0998
20.095
20.1099
20.0894
20.117
20.1299
20.0691
20.1191
20.0809
20.0965
20.1045
20.1032
20.1001
20.0462
20.1495
20.0574
20.1402
20.1037
20.0989
20.1016
20.099
20.1053
20.0982
20.1029
20.0982
20.098
20.098
20.0987
20.0987
20.0972
20.0972
20.0977
20.0977
20.0989
20.1037
20.099
20.1016
20.0982
20.1053
20.0982
20.1029
20.1045
20.0965
20.1001
20.1032
20.1494
20.0463
20.1402
20.0574
20.0842
20.1114
20.0901
20.1083
20.026
20.1646
20.0357
20.1576
20.1085
20.0994
20.1061
20.099
20.1109
20.0987
20.108
20.0984
20.097
20.097
20.0974
20.0974
20.0964
20.0965
20.0968
20.0968
20.0994
20.1085
20.099
20.1061
20.0987
20.1108
20.0983
20.108
20.1114
20.0842
20.1083
20.0902
20.1645
20.0261
20.1575
20.0358
20.0734
20.1159
20.0786
20.1139
20.0089
20.1755
20.0171
20.1705
20.1134
20.1006
20.111
20.0999
20.1165
20.0999
20.1136
20.0992
20.0964
20.0964
20.0966
20.0966
20.0961
20.0961
20.0962
20.0962
20.1006
20.1134
20.0999
20.111
20.0999
20.1164
20.0993
20.1138
20.1159
20.0734
20.1139
20.0786
20.1755
20.009
20.1705
20.0172
20.0643
20.1186
20.0687
20.1174
19.9947
20.1834
20.0015
20.1798
20.1178
20.1022
20.1157
20.1013
20.1215
20.1015
20.1191
20.1007
20.0963
20.0963
20.0963
20.0963
20.0961
20.0961
20.096
20.096
20.1022
20.1178
20.1013
20.1157
20.1015
20.1214
20.1007
20.119
20.1185
20.0643
20.1174
20.0687
20.1833
19.9948
20.1797
20.0016
20.0567
20.12
20.0603
20.1194
19.983
20.1889
19.9886
20.1864
20.1216
20.1039
20.1198
20.103
20.1257
20.1032
20.1237
20.1023
20.0966
20.0966
20.0964
20.0964
20.0964
20.0964
20.0962
20.0962
20.1039
20.1215
20.103
20.1198
20.1032
20.1257
20.1023
20.1237
20.12
20.0567
20.1194
20.0604
20.1888
19.9831
20.1863
19.9887
20.0503
20.1206
20.0533
20.1204
19.9733
20.1927
19.9779
20.191
20.1246
20.1056
20.1232
20.1047
20.1291
20.1048
20.1275
20.104
20.0971
20.0971
20.0968
20.0968
20.097
20.097
20.0967
20.0967
20.1055
20.1246
20.1047
20.1231
20.1048
20.1291
20.104
20.1275
20.1206
20.0503
20.1204
20.0534
20.1927
19.9734
20.1909
19.978
20.0449
20.1206
20.0475
20.1207
19.9653
20.1954
19.9691
20.1942
20.1269
20.1071
20.1258
20.1063
20.1318
20.1063
20.1305
20.1056
20.0978
20.0978
20.0974
20.0974
20.0977
20.0977
20.0973
20.0973
20.107
20.1269
20.1063
20.1258
20.1063
20.1318
20.1056
20.1305
20.1206
20.045
20.1207
20.0475
20.1954
19.9654
20.1942
19.9692
20.0404
20.1204
20.0426
20.1205
19.9586
20.1972
19.9618
20.1964
20.1288
20.1084
20.1279
20.1077
20.1339
20.1076
20.1329
20.107
20.0986
20.0986
20.0982
20.0982
20.0984
20.0984
20.0981
20.0981
20.1084
20.1287
20.1077
20.1279
20.1076
20.1339
20.107
20.1329
20.1204
20.0405
20.1205
20.0426
20.1972
19.9587
20.1964
19.9619
20.0366
20.1199
20.0384
20.1201
19.953
20.1984
19.9557
20.1979
20.1301
20.1095
20.1295
20.1089
20.1355
20.1087
20.1347
20.1082
20.0993
20.0993
20.0989
20.0989
20.0992
20.0992
20.0988
20.0988
20.1094
20.1301
20.1089
20.1295
20.1087
20.1354
20.1082
20.1347
20.1199
20.0366
20.1201
20.0385
20.1983
19.9531
20.1978
19.9558
20.0333
20.1191
20.0349
20.1196
19.9484
20.199
19.9506
20.1988
20.1312
20.1103
20.1306
20.1099
20.1366
20.1096
20.1361
20.1091
20.1
20.1
20.0996
20.0996
20.0998
20.0998
20.0995
20.0995
20.1103
20.131
20.1099
20.1307
20.1095
20.1365
20.1091
20.136
20.1193
20.0334
20.1195
20.0349
20.199
19.9485
20.1987
19.9507
20.0305
20.1184
20.0319
20.1189
19.9445
20.1993
19.9464
20.1992
20.1319
20.1109
20.1314
20.1106
20.1374
20.1102
20.137
20.1099
20.1005
20.1005
20.1002
20.1002
20.1003
20.1003
20.1001
20.1001
20.1109
20.1318
20.1107
20.1316
20.1102
20.1373
20.1099
20.137
20.1185
20.0306
20.1187
20.0319
20.1993
19.9446
20.1992
19.9464
20.0281
20.1177
20.0293
20.1181
19.9413
20.1993
19.9428
20.1994
20.1323
20.1114
20.1321
20.1112
20.1379
20.1106
20.1377
20.1104
20.1009
20.1009
20.1007
20.1007
20.1007
20.1007
20.1005
20.1005
20.1114
20.1322
20.1112
20.1321
20.1106
20.1378
20.1104
20.1376
20.1177
20.0281
20.1181
20.0293
20.1993
19.9414
20.1993
19.9429
20.026
20.1169
20.027
20.1173
19.9385
20.1991
19.9398
20.1992
20.1325
20.1116
20.1324
20.1115
20.1381
20.1109
20.138
20.1108
20.1012
20.1012
20.1011
20.1011
20.1009
20.1009
20.1008
20.1008
20.1116
20.1324
20.1115
20.1324
20.1108
20.138
20.1107
20.138
20.1169
20.0261
20.1173
20.0271
20.1991
19.9386
20.1992
19.9399
20.0242
20.116
20.0251
20.1165
19.9363
20.1986
19.9374
20.1989
20.1325
20.1117
20.1325
20.1117
20.138
20.1109
20.1381
20.1109
20.1013
20.1013
20.1013
20.1013
20.101
20.101
20.101
20.101
20.1117
20.1325
20.1117
20.1325
20.1109
20.138
20.1109
20.138
20.116
20.0243
20.1165
20.0251
20.1986
19.9364
20.1989
19.9375
20.0226
20.1151
20.0234
20.1156
19.9344
20.198
19.9353
20.1983
20.1323
20.1116
20.1324
20.1117
20.1378
20.1107
20.1379
20.1108
20.1013
20.1013
20.1013
20.1013
20.1009
20.1009
20.101
20.101
20.1116
20.1324
20.1117
20.1324
20.1108
20.1378
20.1108
20.1379
20.1153
20.0228
20.1156
20.0235
20.198
19.9346
20.1983
19.9354
20.0213
20.1144
20.0219
20.1148
19.9329
20.1973
19.9336
20.1977
20.132
20.1114
20.1322
20.1115
20.1373
20.1105
20.1376
20.1106
20.1011
20.1011
20.1012
20.1012
20.1007
20.1007
20.1008
20.1008
20.1114
20.132
20.1115
20.1322
20.1105
20.1373
20.1106
20.1376
20.1144
20.0214
20.1148
20.022
20.1972
19.933
20.1976
19.9337
20.0202
20.1137
20.0207
20.114
19.9317
20.1964
19.9323
20.1968
20.1314
20.111
20.1317
20.1112
20.1367
20.11
20.137
20.1103
20.1009
20.1009
20.101
20.101
20.1003
20.1003
20.1005
20.1005
20.111
20.1314
20.1112
20.1317
20.11
20.1367
20.1102
20.137
20.1137
20.0202
20.114
20.0208
20.1964
19.9318
20.1968
19.9324
20.0192
20.1129
20.0197
20.1133
19.9308
20.1954
19.9312
20.1959
20.1306
20.1106
20.131
20.1108
20.1359
20.1094
20.1363
20.1097
20.1005
20.1005
20.1007
20.1007
20.0998
20.0998
20.1001
20.1001
20.1105
20.1306
20.1108
20.131
20.1094
20.1359
20.1097
20.1363
20.1129
20.0192
20.1133
20.0197
20.1954
19.9309
20.1959
19.9313
20.0184
20.1122
20.0188
20.1125
19.9301
20.1943
19.9304
20.1948
20.1298
20.11
20.1302
20.1103
20.135
20.1087
20.1354
20.1091
20.1001
20.1001
20.1003
20.1003
20.0992
20.0992
20.0996
20.0996
20.11
20.1298
20.1103
20.1302
20.1087
20.1349
20.1091
20.1354
20.1122
20.0184
20.1125
20.0188
20.1942
19.9302
20.1948
19.9305
20.0178
20.1115
20.0181
20.1118
19.9297
20.1931
19.9299
20.1937
20.1289
20.1094
20.1293
20.1097
20.1339
20.108
20.1345
20.1084
20.0996
20.0996
20.0999
20.0999
20.0986
20.0986
20.0989
20.0989
20.1094
20.1289
20.1097
20.1293
20.1079
20.1339
20.1083
20.1344
20.1115
20.0178
20.1118
20.0181
20.1931
19.9298
20.1937
19.93
20.0173
20.1108
20.0175
20.1111
19.9295
20.1918
19.9296
20.1925
20.128
20.1087
20.1284
20.109
20.1328
20.1071
20.1334
20.1075
20.0991
20.0991
20.0993
20.0993
20.0978
20.0978
20.0982
20.0982
20.1087
20.1279
20.109
20.1284
20.1071
20.1328
20.1075
20.1333
20.1108
20.0174
20.1111
20.0176
20.1918
19.9296
20.1924
19.9297
20.0171
20.1102
20.0172
20.1105
19.9296
20.1905
19.9295
20.1911
20.127
20.108
20.1275
20.1084
20.1316
20.1062
20.1322
20.1066
20.0985
20.0985
20.0988
20.0988
20.0971
20.0971
20.0975
20.0975
20.108
20.127
20.1084
20.1275
20.1062
20.1316
20.1066
20.1322
20.1102
20.0171
20.1105
20.0172
20.1904
19.9297
20.1911
19.9296
20.017
20.1097
20.017
20.1099
19.93
20.1891
19.9298
20.1898
20.1261
20.1074
20.1265
20.1077
20.1303
20.1053
20.131
20.1057
20.098
20.098
20.0983
20.0983
20.0963
20.0963
20.0967
20.0967
20.1073
20.126
20.1077
20.1265
20.1053
20.1303
20.1057
20.1309
20.1097
20.017
20.1099
20.017
20.189
19.9301
20.1897
19.9299
20.0172
20.1092
20.0171
20.1094
19.9306
20.1876
19.9303
20.1884
20.1251
20.1067
20.1256
20.107
20.129
20.1044
20.1297
20.1048
20.0976
20.0976
20.0978
20.0978
20.0956
20.0956
20.0959
20.0959
20.1067
20.1251
20.107
20.1256
20.1043
20.129
20.1048
20.1297
20.1092
20.0172
20.1094
20.0171
20.1876
19.9307
20.1883
19.9304
20.0176
20.1088
20.0173
20.109
19.9316
20.1862
19.9311
20.1869
20.1243
20.1062
20.1247
20.1064
20.1278
20.1035
20.1284
20.1039
20.0972
20.0972
20.0974
20.0974
20.0949
20.0949
20.0952
20.0952
20.1061
20.1242
20.1064
20.1247
20.1035
20.1277
20.1039
20.1284
20.1089
20.0176
20.109
20.0174
20.1862
19.9317
20.1869
19.9312
20.0182
20.1084
20.0179
20.1087
19.9329
20.1847
19.9322
20.1855
20.1235
20.1057
20.1238
20.1059
20.1265
20.1027
20.1271
20.1031
20.097
20.097
20.0971
20.0971
20.0944
20.0944
20.0946
20.0946
20.1057
20.1233
20.1059
20.1239
20.1027
20.1265
20.1031
20.1271
20.1087
20.0183
20.1086
20.0179
20.1847
19.933
20.1854
19.9323
20.0191
20.1082
20.0187
20.1086
19.9346
20.1832
19.9337
20.184
20.1228
20.1054
20.1229
20.1055
20.1253
20.102
20.1259
20.1023
20.0969
20.0969
20.0969
20.0969
20.094
20.094
20.0941
20.0941
20.1053
20.1225
20.1055
20.1232
20.102
20.1253
20.1023
20.1259
20.1085
20.0193
20.1083
20.0187
20.1832
19.9347
20.1839
19.9338
20.0204
20.1081
20.0198
20.1085
19.9367
20.1818
19.9356
20.1825
20.1221
20.1051
20.1222
20.1052
20.1242
20.1015
20.1247
20.1017
20.097
20.097
20.0969
20.0969
20.0937
20.0937
20.0938
20.0938
20.1051
20.1218
20.1052
20.1225
20.1015
20.1241
20.1017
20.1247
20.1084
20.0205
20.1081
20.0198
20.1818
19.9368
20.1825
19.9357
20.022
20.1082
20.0212
20.1084
19.9392
20.1803
19.9379
20.1811
20.1215
20.1051
20.1216
20.1051
20.1231
20.1011
20.1236
20.1013
20.0973
20.0973
20.0971
20.0971
20.0937
20.0937
20.0937
20.0937
20.105
20.1213
20.1051
20.1218
20.1011
20.1231
20.1013
20.1236
20.1084
20.0221
20.1081
20.0212
20.1803
19.9393
20.181
19.938
20.0239
20.1083
20.0229
20.1084
19.9422
20.1788
19.9407
20.1796
20.121
20.1052
20.1211
20.1051
20.1222
20.101
20.1226
20.101
20.0978
20.0978
20.0975
20.0975
20.0939
20.0939
20.0938
20.0938
20.1052
20.1208
20.1051
20.1212
20.101
20.1221
20.101
20.1226
20.1085
20.0239
20.1082
20.0229
20.1788
19.9423
20.1795
19.9408
20.0261
20.1085
20.025
20.1085
19.9458
20.1773
19.9439
20.1781
20.1207
20.1056
20.1207
20.1053
20.1214
20.1011
20.1218
20.101
20.0985
20.0985
20.0981
20.0981
20.0944
20.0944
20.0941
20.0941
20.1055
20.1205
20.1054
20.1208
20.1011
20.1214
20.101
20.1217
20.1086
20.0262
20.1084
20.025
20.1773
19.9458
20.1781
19.944
20.0288
20.1088
20.0275
20.1087
19.9499
20.1758
19.9477
20.1766
20.1203
20.1061
20.1204
20.1058
20.1208
20.1014
20.121
20.1012
20.0995
20.0995
20.099
20.099
20.0951
20.0951
20.0947
20.0947
20.1061
20.1203
20.1058
20.1205
20.1014
20.1207
20.1012
20.121
20.1088
20.0288
20.1086
20.0274
20.1757
19.9499
20.1765
19.9478
20.0319
20.109
20.0303
20.1088
19.9546
20.1741
19.9521
20.1749
20.1202
20.1068
20.1204
20.1065
20.1203
20.102
20.1205
20.1017
20.1007
20.1007
20.1001
20.1001
20.0962
20.0962
20.0956
20.0956
20.1068
20.1202
20.1064
20.1204
20.102
20.1203
20.1017
20.1205
20.1089
20.0319
20.1088
20.0303
20.174
19.9547
20.1749
19.9522
20.0353
20.1091
20.0335
20.1089
19.96
20.1721
19.9572
20.1731
20.1203
20.1078
20.1204
20.1073
20.1201
20.1029
20.1202
20.1025
20.1021
20.1021
20.1014
20.1014
20.0974
20.0974
20.0968
20.0968
20.1078
20.1203
20.1073
20.1204
20.1029
20.1201
20.1025
20.1202
20.1091
20.0353
20.1089
20.0335
20.1721
19.9601
20.1731
19.9573
20.039
20.1093
20.0371
20.109
19.9665
20.1697
19.9631
20.1709
20.1205
20.109
20.1206
20.1084
20.12
20.1041
20.12
20.1035
20.1036
20.1036
20.1028
20.1028
20.099
20.099
20.0982
20.0982
20.109
20.1205
20.1084
20.1206
20.1041
20.12
20.1035
20.12
20.1093
20.0391
20.109
20.0371
20.1696
19.9666
20.1709
19.9632
20.0421
20.1103
20.0408
20.1093
19.9743
20.1662
19.9702
20.1681
20.1208
20.1104
20.1208
20.1097
20.1202
20.1056
20.1201
20.1048
20.1054
20.1054
20.1045
20.1045
20.1008
20.1008
20.0998
20.0998
20.1104
20.1208
20.1097
20.1208
20.1056
20.1202
20.1048
20.1201
20.1103
20.0421
20.1093
20.0408
20.1662
19.9744
20.1681
19.9703
20.0446
20.1113
20.042
20.1123
19.9835
20.1614
19.9787
20.1641
20.122
20.1121
20.1214
20.1112
20.1208
20.1074
20.1204
20.1065
20.1073
20.1073
20.1063
20.1063
20.1028
20.1028
20.1017
20.1017
20.1121
20.122
20.1112
20.1214
20.1074
20.1208
20.1065
20.1204
20.1113
20.0446
20.1123
20.042
20.1614
19.9835
20.164
19.9788
20.1556
20.059
20.1355
20.0721
20.1443
20.0656
20.1278
20.0766
20.0919
20.0997
20.0958
20.1
20.0951
20.0997
20.0971
20.0995
20.1001
20.1001
20.1001
20.1001
20.0998
20.0998
20.0994
20.0995
20.0997
20.0919
20.1
20.0958
20.0997
20.0951
20.0995
20.0971
20.059
20.1555
20.0721
20.1354
20.0656
20.1443
20.0766
20.1278
20.1457
20.073
20.149
20.068
20.1355
20.0763
20.1391
20.0723
20.0895
20.0977
20.0906
20.0989
20.094
20.0987
20.0945
20.0994
20.0994
20.0994
20.0999
20.0999
20.0993
20.0993
20.0997
20.0997
20.0977
20.0895
20.0989
20.0906
20.0987
20.094
20.0994
20.0945
20.073
20.1457
20.068
20.1489
20.0763
20.1354
20.0723
20.139
20.1418
20.0776
20.1437
20.0759
20.129
20.0813
20.1322
20.0792
20.0901
20.0965
20.0895
20.0969
20.0954
20.098
20.0944
20.0982
20.0981
20.0981
20.0988
20.0988
20.0981
20.0981
20.0987
20.0987
20.0965
20.0901
20.0969
20.0895
20.098
20.0954
20.0982
20.0945
20.0776
20.1418
20.0759
20.1436
20.0813
20.129
20.0792
20.1322
20.1386
20.0789
20.1401
20.0785
20.1229
20.0836
20.1259
20.0827
20.0918
20.0964
20.0909
20.0963
20.0984
20.0982
20.0968
20.098
20.0969
20.0969
20.0974
20.0974
20.0971
20.0971
20.0975
20.0975
20.0964
20.0918
20.0963
20.0909
20.0982
20.0984
20.098
20.0968
20.0789
20.1386
20.0785
20.1401
20.0836
20.1229
20.0827
20.1259
20.1359
20.0786
20.1372
20.0789
20.1175
20.0843
20.1201
20.0841
20.0937
20.097
20.0928
20.0966
20.1016
20.0991
20.1001
20.0986
20.0963
20.0963
20.0965
20.0965
20.0965
20.0965
20.0967
20.0967
20.097
20.0937
20.0966
20.0928
20.0991
20.1016
20.0986
20.1001
20.0786
20.1359
20.0789
20.1372
20.0843
20.1175
20.0841
20.1201
20.1336
20.0775
20.1347
20.0781
20.1129
20.0841
20.1151
20.0843
20.0952
20.098
20.0945
20.0975
20.1043
20.1004
20.103
20.0997
20.0962
20.0962
20.0962
20.0962
20.0965
20.0965
20.0964
20.0964
20.098
20.0952
20.0975
20.0945
20.1004
20.1043
20.0997
20.103
20.0775
20.1335
20.0781
20.1347
20.0841
20.1129
20.0843
20.1151
20.1315
20.0761
20.1325
20.0768
20.1089
20.0833
20.1108
20.0838
20.0963
20.0991
20.0958
20.0985
20.1064
20.1018
20.1054
20.1011
20.0966
20.0966
20.0964
20.0964
20.0969
20.0969
20.0967
20.0966
20.0991
20.0963
20.0985
20.0958
20.1018
20.1064
20.1011
20.1054
20.0761
20.1315
20.0768
20.1325
20.0833
20.1089
20.0838
20.1108
20.1297
20.0745
20.1306
20.0753
20.1055
20.0822
20.1071
20.0828
20.0971
20.1002
20.0967
20.0996
20.108
20.1032
20.1072
20.1025
20.0973
20.0973
20.0969
20.0969
20.0976
20.0976
20.0972
20.0972
20.1002
20.0971
20.0996
20.0967
20.1032
20.108
20.1025
20.1072
20.0745
20.1296
20.0753
20.1305
20.0822
20.1055
20.0828
20.1071
20.128
20.0729
20.1288
20.0737
20.1026
20.0809
20.104
20.0816
20.0975
20.1012
20.0973
20.1007
20.1091
20.1045
20.1086
20.1039
20.0981
20.0981
20.0977
20.0977
20.0984
20.0983
20.098
20.098
20.1012
20.0975
20.1007
20.0973
20.1045
20.1091
20.1039
20.1086
20.0729
20.128
20.0737
20.1288
20.0809
20.1026
20.0816
20.104
20.1265
20.0713
20.1273
20.0721
20.1
20.0796
20.1013
20.0803
20.0977
20.1022
20.0977
20.1017
20.1099
20.1057
20.1096
20.1052
20.0989
20.0989
20.0985
20.0985
20.0992
20.0992
20.0988
20.0988
20.1022
20.0977
20.1017
20.0977
20.1057
20.1099
20.1051
20.1096
20.0714
20.1265
20.0721
20.1272
20.0796
20.1
20.0803
20.1012
20.1252
20.0699
20.1258
20.0706
20.0978
20.0783
20.0989
20.0789
20.0977
20.103
20.0977
20.1026
20.1104
20.1067
20.1102
20.1062
20.0997
20.0997
20.0993
20.0993
20.1
20.1
20.0996
20.0996
20.103
20.0977
20.1026
20.0977
20.1067
20.1104
20.1062
20.1102
20.0699
20.1251
20.0706
20.1258
20.0783
20.0978
20.0789
20.0989
20.1239
20.0686
20.1245
20.0692
20.0959
20.077
20.0968
20.0776
20.0975
20.1037
20.0976
20.1034
20.1107
20.1075
20.1106
20.1071
20.1004
20.1004
20.1
20.1
20.1007
20.1007
20.1003
20.1003
20.1037
20.0975
20.1034
20.0976
20.1075
20.1107
20.1071
20.1106
20.0686
20.1239
20.0693
20.1245
20.077
20.0959
20.0776
20.0968
20.1228
20.0673
20.1233
20.068
20.0942
20.0758
20.095
20.0764
20.0973
20.1042
20.0974
20.104
20.1108
20.1081
20.1107
20.1078
20.101
20.101
20.1007
20.1007
20.1013
20.1013
20.101
20.101
20.1042
20.0973
20.104
20.0974
20.1081
20.1108
20.1078
20.1108
20.0674
20.1227
20.068
20.1233
20.0758
20.0941
20.0764
20.095
20.1217
20.0662
20.1222
20.0668
20.0926
20.0746
20.0934
20.0752
20.097
20.1046
20.0971
20.1044
20.1107
20.1086
20.1108
20.1084
20.1014
20.1014
20.1012
20.1012
20.1017
20.1017
20.1015
20.1015
20.1046
20.097
20.1044
20.0971
20.1086
20.1107
20.1083
20.1107
20.0662
20.1217
20.0668
20.1222
20.0747
20.0926
20.0752
20.0933
20.1207
20.0652
20.1212
20.0657
20.0912
20.0736
20.0919
20.0741
20.0966
20.1048
20.0968
20.1047
20.1105
20.1089
20.1106
20.1087
20.1018
20.1018
20.1016
20.1016
20.102
20.102
20.1019
20.1019
20.1048
20.0966
20.1047
20.0968
20.1088
20.1105
20.1087
20.1106
20.0652
20.1207
20.0657
20.1212
20.0736
20.0912
20.0741
20.0919
20.1198
20.0642
20.1202
20.0647
20.09
20.0726
20.0906
20.0731
20.0962
20.105
20.0964
20.1049
20.1101
20.109
20.1103
20.1089
20.102
20.102
20.1019
20.1019
20.1022
20.1022
20.1021
20.1021
20.105
20.0962
20.1049
20.0964
20.109
20.1101
20.1089
20.1103
20.0642
20.1197
20.0647
20.1202
20.0726
20.09
20.0731
20.0906
20.1189
20.0634
20.1193
20.0638
20.0889
20.0717
20.0894
20.0721
20.0958
20.1049
20.096
20.1049
20.1098
20.109
20.1099
20.109
20.1021
20.1021
20.1021
20.1021
20.1022
20.1022
20.1022
20.1022
20.1049
20.0958
20.1049
20.096
20.1089
20.1095
20.109
20.1099
20.0633
20.1188
20.0638
20.1193
20.0717
20.0889
20.0721
20.0894
20.1181
20.0626
20.1185
20.0629
20.0879
20.0708
20.0884
20.0713
20.0954
20.1048
20.0956
20.1049
20.1092
20.1089
20.1094
20.1089
20.1021
20.1021
20.1021
20.1021
20.1022
20.1021
20.1022
20.1022
20.1048
20.0954
20.1048
20.0956
20.1088
20.1092
20.1089
20.1094
20.0626
20.118
20.063
20.1184
20.0709
20.0879
20.0713
20.0884
20.1173
20.0619
20.1177
20.0622
20.087
20.0701
20.0874
20.0705
20.095
20.1046
20.0952
20.1047
20.1089
20.1086
20.109
20.1087
20.102
20.102
20.1021
20.102
20.102
20.102
20.1021
20.1021
20.1046
20.095
20.1047
20.0952
20.1086
20.1089
20.1087
20.109
20.0619
20.1173
20.0622
20.1176
20.0701
20.0869
20.0705
20.0874
20.1166
20.0613
20.117
20.0615
20.0861
20.0694
20.0865
20.0697
20.0947
20.1043
20.0949
20.1045
20.1086
20.1083
20.1088
20.1084
20.1018
20.1018
20.1019
20.1019
20.1017
20.1017
20.1018
20.1018
20.1043
20.0947
20.1045
20.0949
20.1082
20.1086
20.1084
20.1088
20.0613
20.1166
20.0616
20.1169
20.0694
20.0861
20.0698
20.0865
20.116
20.0608
20.1163
20.061
20.0854
20.0688
20.0858
20.0691
20.0944
20.104
20.0945
20.1042
20.1083
20.1079
20.1085
20.1081
20.1016
20.1016
20.1017
20.1017
20.1014
20.1014
20.1016
20.1016
20.104
20.0944
20.1042
20.0945
20.1079
20.1083
20.1081
20.1085
20.0608
20.1159
20.061
20.1162
20.0688
20.0854
20.0691
20.0857
20.1155
20.0604
20.1157
20.0606
20.0848
20.0683
20.0851
20.0686
20.094
20.1038
20.0942
20.1039
20.108
20.1074
20.1081
20.1077
20.1014
20.1014
20.1015
20.1015
20.101
20.101
20.1012
20.1012
20.1037
20.094
20.1039
20.0942
20.1074
20.108
20.1076
20.1081
20.0604
20.1154
20.0606
20.1157
20.0684
20.0848
20.0686
20.0851
20.115
20.0601
20.1152
20.0602
20.0844
20.0679
20.0846
20.0681
20.0937
20.1035
20.0938
20.1036
20.1076
20.107
20.1078
20.1072
20.1012
20.1012
20.1013
20.1013
20.1007
20.1007
20.1009
20.1009
20.1035
20.0937
20.1036
20.0939
20.107
20.1076
20.1072
20.1078
20.0602
20.115
20.0603
20.1152
20.068
20.0843
20.0681
20.0846
20.1147
20.06
20.1149
20.0601
20.084
20.0677
20.0842
20.0678
20.0935
20.1032
20.0936
20.1034
20.1072
20.1066
20.1074
20.1068
20.101
20.101
20.1011
20.1011
20.1004
20.1003
20.1005
20.1005
20.1032
20.0935
20.1033
20.0936
20.1066
20.1072
20.1068
20.1074
20.06
20.1146
20.0601
20.1148
20.0677
20.084
20.0678
20.0841
20.1145
20.06
20.1146
20.06
20.0838
20.0675
20.0839
20.0676
20.0934
20.1031
20.0935
20.1031
20.1069
20.1062
20.1071
20.1064
20.1009
20.1009
20.1009
20.1009
20.1001
20.1001
20.1002
20.1002
20.1031
20.0934
20.1031
20.0935
20.1062
20.1069
20.1063
20.1071
20.06
20.1144
20.06
20.1145
20.0675
20.0838
20.0676
20.0839
20.1144
20.0602
20.1144
20.0601
20.0838
20.0675
20.0838
20.0675
20.0934
20.1029
20.0934
20.103
20.1066
20.1058
20.1068
20.106
20.1008
20.1008
20.1008
20.1008
20.0998
20.0998
20.0999
20.0999
20.1029
20.0934
20.103
20.0934
20.1058
20.1066
20.106
20.1068
20.0602
20.1144
20.0601
20.1144
20.0675
20.0838
20.0675
20.0838
20.1145
20.0603
20.1144
20.0602
20.0839
20.0676
20.0838
20.0675
20.0935
20.1029
20.0935
20.1029
20.1064
20.1056
20.1065
20.1057
20.1009
20.1009
20.1008
20.1008
20.0997
20.0997
20.0998
20.0998
20.1029
20.0935
20.1029
20.0935
20.1056
20.1064
20.1057
20.1065
20.0603
20.1144
20.0603
20.1144
20.0676
20.0839
20.0676
20.0838
20.1146
20.0611
20.1145
20.0607
20.0842
20.0679
20.0841
20.0677
20.0937
20.103
20.0936
20.103
20.1063
20.1054
20.1063
20.1055
20.1011
20.1011
20.101
20.101
20.0997
20.0997
20.0997
20.0997
20.103
20.0937
20.103
20.0936
20.1054
20.1063
20.1055
20.1063
20.0611
20.1146
20.0607
20.1145
20.0679
20.0842
20.0677
20.084
20.1149
20.062
20.1148
20.0615
20.0847
20.0682
20.0845
20.068
20.094
20.1032
20.0938
20.1031
20.1062
20.1054
20.1062
20.1054
20.1014
20.1014
20.1012
20.1012
20.0999
20.0999
20.0998
20.0998
20.1032
20.094
20.1031
20.0938
20.1054
20.1062
20.1054
20.1062
20.062
20.1149
20.0615
20.1147
20.0682
20.0847
20.068
20.0844
20.1154
20.0631
20.1152
20.0625
20.0855
20.0686
20.0851
20.0684
20.0944
20.1036
20.0942
20.1034
20.1063
20.1055
20.1062
20.1054
20.1019
20.1019
20.1016
20.1016
20.1002
20.1002
20.1001
20.1001
20.1036
20.0944
20.1034
20.0942
20.1055
20.1063
20.1054
20.1062
20.0631
20.1153
20.0625
20.1151
20.0686
20.0855
20.0684
20.0851
20.116
20.0641
20.1157
20.0638
20.0864
20.0693
20.0859
20.0688
20.0949
20.1041
20.0947
20.1038
20.1064
20.1058
20.1063
20.1056
20.1025
20.1025
20.1022
20.1022
20.1008
20.1008
20.1005
20.1005
20.1041
20.095
20.1038
20.0947
20.1058
20.1064
20.1056
20.1063
20.0641
20.1159
20.0639
20.1156
20.0693
20.0864
20.0688
20.0859
20.1167
20.0648
20.1163
20.0644
20.0875
20.0704
20.0869
20.0699
20.0956
20.1047
20.0953
20.1044
20.1067
20.1062
20.1065
20.106
20.1033
20.1033
20.1029
20.1029
20.1015
20.1015
20.1011
20.1011
20.1047
20.0956
20.1044
20.0953
20.1062
20.1066
20.106
20.1065
20.0648
20.1166
20.0644
20.1163
20.0705
20.0875
20.0699
20.0869
20.1174
20.0657
20.1171
20.0652
20.0888
20.0716
20.0881
20.071
20.0964
20.1055
20.096
20.1051
20.107
20.1068
20.1068
20.1065
20.1043
20.1043
20.1038
20.1038
20.1023
20.1023
20.1019
20.1019
20.1055
20.0964
20.1051
20.096
20.1068
20.107
20.1065
20.1068
20.0657
20.1174
20.0652
20.117
20.0716
20.0887
20.071
20.0881
20.1182
20.0668
20.1178
20.0662
20.0902
20.0728
20.0895
20.0722
20.0973
20.1064
20.0968
20.1059
20.1075
20.1075
20.1072
20.1071
20.1054
20.1054
20.1049
20.1049
20.1034
20.1034
20.1029
20.1029
20.1064
20.0973
20.1059
20.0968
20.1075
20.1075
20.1071
20.1072
20.0668
20.1181
20.0663
20.1178
20.0728
20.0902
20.0722
20.0895
20.1188
20.0682
20.1185
20.0675
20.0918
20.074
20.091
20.0734
20.0983
20.1075
20.0977
20.1069
20.108
20.1084
20.1078
20.108
20.1067
20.1067
20.106
20.106
20.1046
20.1046
20.104
20.104
20.1075
20.0983
20.1069
20.0977
20.1084
20.108
20.108
20.1077
20.0682
20.1187
20.0675
20.1184
20.074
20.0917
20.0734
20.091
20.1189
20.0698
20.1189
20.0689
20.0932
20.0754
20.0925
20.0747
20.0994
20.1086
20.0988
20.108
20.1087
20.1095
20.1084
20.1089
20.108
20.108
20.1074
20.1074
20.106
20.106
20.1053
20.1053
20.1086
20.0994
20.108
20.0988
20.1095
20.1087
20.1089
20.1084
20.0698
20.1189
20.0689
20.1189
20.0754
20.0932
20.0747
20.0925
20.1183
20.0722
20.1188
20.0709
20.0944
20.0772
20.0939
20.0763
20.1006
20.1099
20.1
20.1092
20.1095
20.1107
20.1091
20.1101
20.1095
20.1095
20.1088
20.1088
20.1075
20.1075
20.1067
20.1067
20.1099
20.1006
20.1092
20.1
20.1107
20.1095
20.1101
20.1091
20.0722
20.1182
20.0709
20.1187
20.0772
20.0943
20.0763
20.0938
20.1138
20.0778
20.117
20.0741
20.0931
20.0811
20.0944
20.0785
20.102
20.1113
20.1013
20.1106
20.1104
20.1121
20.1099
20.1114
20.1111
20.1111
20.1103
20.1103
20.1091
20.1091
20.1083
20.1083
20.1113
20.102
20.1106
20.1013
20.1121
20.1104
20.1113
20.1099
20.0778
20.1138
20.0741
20.117
20.0811
20.0931
20.0785
20.0944
20.1248
20.068
20.1096
20.0825
20.1013
20.0752
20.0906
20.0847
20.1033
20.1133
20.1031
20.1123
20.1117
20.1139
20.1113
20.113
20.1126
20.1126
20.1118
20.1118
20.1108
20.1108
20.11
20.11
20.1133
20.1033
20.1123
20.1031
20.1139
20.1117
20.113
20.1113
20.068
20.1247
20.0825
20.1096
20.0752
20.1013
20.0847
20.0906
20.1709
20.0512
20.1465
20.0653
20.164
20.0543
20.1415
20.0682
20.0852
20.0984
20.0918
20.0996
20.0883
20.0991
20.0936
20.0998
20.1002
20.1002
20.1003
20.1003
20.1001
20.1001
20.1001
20.1001
20.0984
20.0853
20.0996
20.0918
20.0991
20.0884
20.0998
20.0937
20.0512
20.1708
20.0653
20.1464
20.0543
20.1639
20.0682
20.1414
20.1542
20.0754
20.1594
20.0667
20.1511
20.0734
20.1552
20.0665
20.0827
20.0942
20.084
20.0964
20.0856
20.096
20.0869
20.0977
20.0989
20.0989
20.0998
20.0998
20.0993
20.0993
20.0999
20.0999
20.0942
20.0827
20.0964
20.084
20.096
20.0856
20.0977
20.0869
20.0754
20.1542
20.0667
20.1594
20.0734
20.1511
20.0665
20.1551
20.1495
20.0833
20.1515
20.0803
20.1473
20.0795
20.1489
20.0772
20.083
20.0919
20.0826
20.0928
20.0858
20.0941
20.0854
20.0948
20.0968
20.0968
20.0979
20.0979
20.0976
20.0976
20.0985
20.0985
20.092
20.083
20.0928
20.0826
20.0941
20.0858
20.0948
20.0854
20.0833
20.1495
20.0803
20.1514
20.0795
20.1472
20.0772
20.1489
20.1469
20.0861
20.1481
20.0851
20.1448
20.0815
20.1459
20.0808
20.0843
20.0911
20.0836
20.0914
20.087
20.0936
20.0864
20.0937
20.095
20.095
20.0958
20.0958
20.0962
20.0962
20.0969
20.0969
20.0911
20.0843
20.0914
20.0837
20.0936
20.087
20.0937
20.0864
20.0861
20.1469
20.0851
20.148
20.0815
20.1447
20.0808
20.1459
20.1452
20.0869
20.146
20.0867
20.1429
20.0816
20.1438
20.0817
20.0853
20.091
20.0848
20.091
20.0882
20.0938
20.0876
20.0936
20.094
20.094
20.0944
20.0944
20.0954
20.0954
20.0957
20.0957
20.091
20.0853
20.091
20.0848
20.0938
20.0882
20.0936
20.0876
20.0869
20.1451
20.0867
20.1459
20.0816
20.1428
20.0817
20.1437
20.1437
20.0867
20.1444
20.0869
20.1413
20.0808
20.1421
20.0813
20.0859
20.0913
20.0856
20.0911
20.089
20.0945
20.0887
20.0941
20.0938
20.0938
20.0938
20.0938
20.0952
20.0952
20.0953
20.0953
20.0913
20.0859
20.0911
20.0856
20.0945
20.089
20.0941
20.0887
20.0867
20.1437
20.0869
20.1444
20.0808
20.1413
20.0813
20.142
20.1425
20.086
20.1431
20.0864
20.1399
20.0797
20.1406
20.0803
20.0862
20.0918
20.0861
20.0915
20.0896
20.0953
20.0893
20.0948
20.0939
20.0939
20.0938
20.0938
20.0955
20.0955
20.0953
20.0953
20.0918
20.0862
20.0915
20.0861
20.0953
20.0896
20.0948
20.0893
20.086
20.1424
20.0864
20.1431
20.0797
20.1399
20.0803
20.1405
20.1414
20.0851
20.1419
20.0855
20.1386
20.0784
20.1393
20.079
20.0863
20.0923
20.0863
20.092
20.0898
20.0961
20.0897
20.0957
20.0944
20.0944
20.0942
20.0942
20.0961
20.0961
20.0958
20.0958
20.0923
20.0863
20.092
20.0863
20.0961
20.0898
20.0957
20.0897
20.0851
20.1413
20.0855
20.1419
20.0784
20.1386
20.079
20.1392
20.1403
20.084
20.1408
20.0846
20.1375
20.077
20.138
20.0777
20.0862
20.0928
20.0863
20.0925
20.0899
20.0968
20.0899
20.0964
20.0951
20.0951
20.0947
20.0947
20.0969
20.0969
20.0965
20.0965
20.0928
20.0862
20.0925
20.0863
20.0968
20.0899
20.0964
20.0899
20.084
20.1403
20.0845
20.1408
20.077
20.1374
20.0777
20.138
20.1394
20.083
20.1398
20.0835
20.1364
20.0757
20.1369
20.0763
20.086
20.0932
20.0861
20.093
20.0898
20.0975
20.0898
20.0972
20.0957
20.0957
20.0954
20.0954
20.0977
20.0977
20.0973
20.0973
20.0932
20.086
20.093
20.0861
20.0975
20.0898
20.0972
20.0898
20.083
20.1393
20.0835
20.1398
20.0757
20.1363
20.0763
20.1369
20.1384
20.0819
20.1389
20.0825
20.1353
20.0744
20.1358
20.075
20.0858
20.0936
20.0859
20.0934
20.0895
20.098
20.0897
20.0978
20.0964
20.0964
20.0961
20.0961
20.0984
20.0984
20.098
20.098
20.0936
20.0858
20.0934
20.0859
20.098
20.0896
20.0978
20.0897
20.0819
20.1384
20.0824
20.1388
20.0744
20.1353
20.075
20.1358
20.1376
20.0809
20.138
20.0814
20.1344
20.0732
20.1348
20.0738
20.0855
20.0939
20.0856
20.0937
20.0893
20.0985
20.0894
20.0983
20.097
20.097
20.0967
20.0967
20.0991
20.0991
20.0987
20.0987
20.0939
20.0855
20.0937
20.0856
20.0985
20.0893
20.0983
20.0894
20.0809
20.1375
20.0814
20.1379
20.0732
20.1343
20.0738
20.1348
20.1367
20.08
20.1371
20.0805
20.1334
20.0721
20.1339
20.0726
20.0851
20.0941
20.0853
20.094
20.0889
20.0988
20.0891
20.0986
20.0975
20.0975
20.0973
20.0973
20.0996
20.0996
20.0994
20.0994
20.0941
20.0851
20.094
20.0853
20.0988
20.089
20.0986
20.0891
20.08
20.1367
20.0805
20.1371
20.0721
20.1334
20.0726
20.1338
20.1359
20.0791
20.1363
20.0795
20.1326
20.071
20.133
20.0715
20.0847
20.0942
20.0849
20.0941
20.0886
20.099
20.0888
20.0989
20.0979
20.0979
20.0977
20.0977
20.1001
20.1001
20.0999
20.0999
20.0942
20.0847
20.0941
20.0849
20.099
20.0886
20.0989
20.0888
20.0791
20.1359
20.0795
20.1363
20.071
20.1325
20.0715
20.133
20.1352
20.0783
20.1356
20.0787
20.1317
20.0701
20.1322
20.0705
20.0844
20.0943
20.0846
20.0942
20.0882
20.0991
20.0884
20.0991
20.0982
20.0982
20.0981
20.0981
20.1004
20.1004
20.1003
20.1003
20.0943
20.0844
20.0942
20.0846
20.0991
20.0882
20.099
20.0884
20.0783
20.1351
20.0787
20.1355
20.0701
20.1317
20.0705
20.1321
20.1345
20.0775
20.1348