/*--------------------------------*- C++ -*----------------------------------*\
  =========                 |
  \\      /  F ield         | OpenFOAM: The Open Source CFD Toolbox
   \\    /   O peration     | Website:  https://openfoam.org
    \\  /    A nd           | Version:  9
     \\/     M anipulation  |
\*---------------------------------------------------------------------------*/
FoamFile
{
    format      ascii;
    class       volVectorField;
    location    "4.5";
    object      U;
}
// * * * * * * * * * * * * * * * * * * * * * * * * * * * * * * * * * * * * * //

dimensions      [0 1 -1 0 0 0 0];

internalField   nonuniform List<vector> 
36360
(
(0.00688828 -0.129448 -0.493177)
(-0.00419442 -0.091095 0.000320947)
(0.00809576 -0.137164 -0.496802)
(-0.00560738 -0.082447 0.000237554)
(0.0059401 -0.16137 -0.49993)
(-0.000332847 -0.0606432 -8.68339e-05)
(0.0144869 -0.179129 -0.501213)
(-0.00350004 -0.0535841 -4.73521e-05)
(0.00365371 -0.0941538 -0.000225834)
(0.00319576 -0.0980627 -1.65993e-05)
(0.00214163 -0.0930667 -0.000175471)
(0.00178402 -0.0974814 -1.0776e-05)
(0.00588667 -0.0861064 0.000103742)
(0.00441668 -0.100287 -3.20347e-06)
(0.00644833 -0.0935527 3.88012e-05)
(0.00564096 -0.106785 -8.03622e-06)
(0.00277237 -0.100078 -7.99167e-07)
(0.00277217 -0.100079 8.09846e-07)
(0.00136815 -0.0995244 -1.97487e-07)
(0.00136792 -0.0995257 1.99665e-07)
(0.00407641 -0.105045 -1.33467e-06)
(0.00407607 -0.105047 1.33957e-06)
(0.00539958 -0.110842 -2.0107e-06)
(0.00539924 -0.110843 2.008e-06)
(0.00319526 -0.0980654 1.6602e-05)
(0.00365409 -0.0941561 0.000225733)
(0.00178322 -0.0974846 1.078e-05)
(0.00214137 -0.0930697 0.000175358)
(0.00441619 -0.100295 3.21981e-06)
(0.00588688 -0.0861208 -0.000103553)
(0.00564025 -0.106791 8.03408e-06)
(0.00644826 -0.0935676 -3.87009e-05)
(-0.00418731 -0.0910896 -0.000320649)
(0.00688159 -0.12944 0.493187)
(-0.00560142 -0.082445 -0.000237251)
(0.00808597 -0.137148 0.49681)
(-0.000323674 -0.0606506 8.65963e-05)
(0.00593477 -0.161344 0.499932)
(-0.0034901 -0.0536041 4.71972e-05)
(0.0144727 -0.179085 0.501215)
(0.0100335 -0.125115 -0.489866)
(-0.008748 -0.0939099 0.000118351)
(0.00887593 -0.128778 -0.491575)
(-0.0066629 -0.0915675 0.000212909)
(0.0072083 -0.151864 -0.499838)
(-0.00759081 -0.0649721 -0.000397521)
(0.00603475 -0.157646 -0.50017)
(-0.00447566 -0.059835 -0.000235285)
(0.00164227 -0.0935683 -5.27865e-05)
(0.00244871 -0.0969716 8.65329e-06)
(0.00282057 -0.0934392 -0.000129086)
(0.00310879 -0.0974951 -7.67102e-06)
(0.00295604 -0.0793447 0.000392298)
(0.00231845 -0.0929121 3.36066e-05)
(0.00434439 -0.0809296 0.000251932)
(0.00340892 -0.095493 1.11937e-05)
(0.00233145 -0.0990153 1.72629e-07)
(0.00233148 -0.0990162 -1.60339e-07)
(0.00286801 -0.0996184 -1.02397e-06)
(0.00286796 -0.0996194 1.03471e-06)
(0.00213529 -0.0980644 1.33413e-06)
(0.00213532 -0.0980665 -1.3193e-06)
(0.00322214 -0.100591 -6.31914e-07)
(0.00322207 -0.100593 6.40136e-07)
(0.00244902 -0.096974 -8.59314e-06)
(0.00164417 -0.0935697 5.28603e-05)
(0.00310884 -0.0974978 7.69953e-06)
(0.00282207 -0.0934415 0.0001291)
(0.00231869 -0.0929191 -3.35217e-05)
(0.00295702 -0.0793549 -0.000391888)
(0.00340909 -0.0955006 -1.11464e-05)
(0.0043453 -0.0809424 -0.000251609)
(-0.00874059 -0.093904 -0.000118426)
(0.0100257 -0.125108 0.489878)
(-0.00665525 -0.091562 -0.000212841)
(0.00886877 -0.128769 0.491585)
(-0.00758233 -0.06497 0.000396882)
(0.00720026 -0.151844 0.49984)
(-0.00446637 -0.0598386 0.000234834)
(0.00602771 -0.157621 0.500171)
(0.0108765 -0.119357 -0.486918)
(-0.0105214 -0.0965377 -8.60109e-05)
(0.010566 -0.121929 -0.48833)
(-0.00985399 -0.0953992 1.86799e-05)
(0.0078433 -0.140155 -0.499274)
(-0.00952583 -0.0743935 -0.000733798)
(0.00763089 -0.145677 -0.499539)
(-0.00892926 -0.0699193 -0.000565628)
(0.000256328 -0.0937977 6.74502e-05)
(0.00134501 -0.0959068 6.84894e-05)
(0.000810766 -0.0935922 1.26183e-05)
(0.00183025 -0.0963503 3.5574e-05)
(0.00160645 -0.078742 0.000637058)
(0.00109999 -0.0894749 0.000100797)
(0.00210431 -0.0785734 0.0005223)
(0.00157979 -0.0908228 6.44863e-05)
(0.0013466 -0.0976405 1.09271e-05)
(0.00134668 -0.0976412 -1.08769e-05)
(0.00177585 -0.0982693 4.39818e-06)
(0.00177591 -0.0982701 -4.37648e-06)
(0.00102555 -0.0945094 1.17585e-05)
(0.00102558 -0.0945113 -1.16612e-05)
(0.0014229 -0.0959842 5.54223e-06)
(0.00142293 -0.0959862 -5.51103e-06)
(0.00134543 -0.0959083 -6.83801e-05)
(0.000258117 -0.0937971 -6.73372e-05)
(0.00183063 -0.0963523 -3.54795e-05)
(0.000812623 -0.0935926 -1.25177e-05)
(0.00110033 -0.0894808 -0.000100654)
(0.0016071 -0.0787473 -0.000636596)
(0.00158008 -0.0908293 -6.43622e-05)
(0.00210517 -0.078581 -0.000521836)
(-0.0105148 -0.0965316 8.57241e-05)
(0.0108688 -0.119352 0.486932)
(-0.00984707 -0.095393 -1.88708e-05)
(0.0105581 -0.121923 0.488342)
(-0.0095191 -0.0743863 0.000732852)
(0.00783614 -0.140144 0.499276)
(-0.00892181 -0.0699139 0.000564819)
(0.00762316 -0.145662 0.499541)
(0.0112668 -0.11536 -0.484363)
(-0.0113187 -0.098235 -0.000290469)
(0.0110903 -0.117195 -0.48554)
(-0.0109724 -0.0974672 -0.000190388)
(0.00800813 -0.131038 -0.498789)
(-0.0100442 -0.0817183 -0.00105272)
(0.00793823 -0.1353 -0.499017)
(-0.00983137 -0.0783476 -0.000896855)
(-0.000355677 -0.0946205 0.000143572)
(0.000722538 -0.0955609 0.000138106)
(-0.000104061 -0.0941643 0.000110885)
(0.000986499 -0.0956538 0.000103606)
(0.00127003 -0.0805804 0.000816626)
(0.000513437 -0.0882237 0.000180413)
(0.0013312 -0.0794763 0.000734488)
(0.000762502 -0.0886593 0.000139626)
(0.000797333 -0.0968348 2.86805e-05)
(0.000797861 -0.0968352 -2.86572e-05)
(0.00103379 -0.0971639 1.92118e-05)
(0.00103389 -0.0971644 -1.90948e-05)
(0.000628637 -0.0926546 2.79329e-05)
(0.000629117 -0.0926565 -2.89366e-05)
(0.000789634 -0.0934437 1.97803e-05)
(0.000789685 -0.093445 -1.91807e-05)
(0.000723038 -0.0955615 -0.000137631)
(-0.000354693 -0.0946189 -0.000143296)
(0.000986833 -0.0956548 -0.000103512)
(-0.000102111 -0.0941632 -0.00011078)
(0.000513977 -0.0882273 -0.000177512)
(0.00126929 -0.0805818 -0.000815341)
(0.00076279 -0.0886642 -0.000139735)
(0.00133133 -0.0794803 -0.00073446)
(-0.0113128 -0.0982293 0.0002899)
(0.0112593 -0.115357 0.484377)
(-0.0109661 -0.0974613 0.000190061)
(0.0110828 -0.117192 0.485554)
(-0.0100384 -0.0817096 0.00105023)
(0.00800169 -0.131031 0.49879)
(-0.00982512 -0.0783397 0.000896057)
(0.0079315 -0.135291 0.499019)
(0.0115531 -0.112479 -0.482195)
(-0.0118271 -0.0993946 -0.000474081)
(0.0114124 -0.113804 -0.483183)
(-0.0115916 -0.0988673 -0.000385257)
(0.00807875 -0.124117 -0.498366)
(-0.0103309 -0.0868716 -0.00133192)
(0.00803208 -0.127334 -0.498563)
(-0.0101849 -0.0845339 -0.00119658)
(-0.000579987 -0.0956144 0.000181537)
(0.000403635 -0.0957197 0.000201815)
(-0.000503399 -0.0951072 0.00016647)
(0.000535623 -0.0955916 0.000170859)
(0.00136587 -0.0831384 0.000936728)
(0.000171182 -0.0881012 0.000252929)
(0.00130075 -0.0818285 0.000882885)
(0.000322505 -0.0880587 0.000215683)
(0.000472241 -0.096543 4.93505e-05)
(0.000472474 -0.0965432 -4.93077e-05)
(0.000616677 -0.0966349 3.88898e-05)
(0.000616416 -0.0966352 -3.89254e-05)
(0.000408747 -0.0916674 4.79419e-05)
(0.000408995 -0.0916683 -4.80617e-05)
(0.000508391 -0.092076 3.82934e-05)
(0.000508135 -0.0920777 -3.79104e-05)
(0.000403988 -0.0957196 -0.000201642)
(-0.000578785 -0.0956123 -0.000181544)
(0.000536341 -0.0955918 -0.000170997)
(-0.000501367 -0.0951052 -0.000166528)
(0.000171752 -0.088104 -0.000252433)
(0.00136542 -0.0831386 -0.000936349)
(0.000323332 -0.088062 -0.000218332)
(0.00130098 -0.0818286 -0.000882329)
(-0.011821 -0.0993898 0.000473483)
(0.011546 -0.112477 0.482211)
(-0.0115852 -0.0988619 0.000384877)
(0.0114052 -0.113802 0.483198)
(-0.0103252 -0.0868636 0.0013304)
(0.00807292 -0.124113 0.498369)
(-0.010179 -0.0845252 0.00119661)
(0.00802607 -0.127328 0.498567)
(0.0118014 -0.110385 -0.480344)
(-0.0122254 -0.100215 -0.000631283)
(0.0116765 -0.111351 -0.481174)
(-0.0120332 -0.0998373 -0.000556056)
(0.00815038 -0.118907 -0.497998)
(-0.0105932 -0.0904055 -0.00156865)
(0.00809892 -0.12133 -0.498168)
(-0.0104492 -0.0888033 -0.0014555)
(-0.000595963 -0.096619 0.000193458)
(0.000255063 -0.0961719 0.000254375)
(-0.000602464 -0.0961226 0.000190106)
(0.000313893 -0.09592 0.000229673)
(0.00155328 -0.085694 0.00101383)
(-4.26798e-05 -0.088599 0.00031459)
(0.00145624 -0.0844396 0.000979773)
(5.15112e-05 -0.0882948 0.0002854)
(0.00025451 -0.0966095 6.92846e-05)
(0.000254637 -0.0966095 -6.91362e-05)
(0.000353974 -0.0965403 5.95834e-05)
(0.000354123 -0.0965404 -5.94703e-05)
(0.000249057 -0.091249 6.71277e-05)
(0.000249229 -0.0912499 -6.69819e-05)
(0.000323675 -0.091398 5.77996e-05)
(0.000323859 -0.0913991 -5.77058e-05)
(0.000255263 -0.0961713 -0.000254144)
(-0.000594996 -0.0966165 -0.000193464)
(0.000314172 -0.0959196 -0.000229464)
(-0.000601387 -0.0961202 -0.000190104)
(-4.21221e-05 -0.0886002 -0.000314295)
(0.00155264 -0.0856922 -0.00101337)
(5.20983e-05 -0.0882966 -0.00028512)
(0.0014557 -0.0844384 -0.000979311)
(-0.0122194 -0.100211 0.000630636)
(0.0117944 -0.110384 0.48036)
(-0.0120271 -0.0998328 0.000555431)
(0.0116694 -0.111349 0.48119)
(-0.0105876 -0.0903981 0.00156717)
(0.00814488 -0.118905 0.498001)
(-0.0104436 -0.0887955 0.00145405)
(0.00809324 -0.121327 0.498171)
(0.0120235 -0.108847 -0.478742)
(-0.0125532 -0.100824 -0.000762077)
(0.011911 -0.109559 -0.479446)
(-0.012394 -0.10054 -0.000699779)
(0.00823248 -0.114962 -0.497677)
(-0.0108485 -0.0928462 -0.0017651)
(0.00817507 -0.116801 -0.497824)
(-0.0107091 -0.0917356 -0.00167156)
(-0.000540365 -0.0975487 0.000189192)
(0.000194774 -0.0967719 0.000294102)
(-0.000570912 -0.0970952 0.000192812)
(0.000218013 -0.0964594 0.000275771)
(0.0017501 -0.0879737 0.00106078)
(-0.00016545 -0.0894076 0.000362486)
(0.00165554 -0.0868739 0.00104033)
(-0.000114874 -0.0889765 0.000340234)
(9.99147e-05 -0.0969094 8.61872e-05)
(9.99886e-05 -0.0969092 -8.60033e-05)
(0.000170687 -0.0967363 7.82088e-05)
(0.000170788 -0.0967361 -7.80394e-05)
(0.000126192 -0.0912405 8.36744e-05)
(0.000126328 -0.091241 -8.3487e-05)
(0.000183449 -0.0912009 7.57695e-05)
(0.000183616 -0.0912015 -7.55992e-05)
(0.000194839 -0.0967709 -0.000293852)
(-0.000539535 -0.0975462 -0.000189225)
(0.00021814 -0.0964585 -0.000275527)
(-0.000570023 -0.0970926 -0.000192831)
(-0.000165086 -0.0894078 -0.00036217)
(0.00174931 -0.0879711 -0.00106034)
(-0.000114366 -0.0889772 -0.000339926)
(0.00165482 -0.0868716 -0.00103988)
(-0.0125471 -0.10082 0.000761391)
(0.0120167 -0.108846 0.478758)
(-0.0123879 -0.100536 0.000699111)
(0.0119041 -0.109558 0.479462)
(-0.0108429 -0.0928397 0.00176357)
(0.00822721 -0.114961 0.49768)
(-0.0107035 -0.0917286 0.00167005)
(0.00816966 -0.116799 0.497827)
(0.012221 -0.107704 -0.477347)
(-0.0128265 -0.101294 -0.000869469)
(0.012121 -0.108234 -0.477952)
(-0.0126929 -0.101072 -0.000818409)
(0.00831977 -0.111939 -0.497397)
(-0.0110857 -0.0945612 -0.00192647)
(0.00826065 -0.113354 -0.497524)
(-0.0109561 -0.0937763 -0.00184976)
(-0.000470315 -0.0983811 0.000176168)
(0.000178447 -0.0974305 0.000322316)
(-0.000504499 -0.0979772 0.000183492)
(0.000182774 -0.0970982 0.000309468)
(0.00192273 -0.0899208 0.00108769)
(-0.000203935 -0.0903647 0.000397551)
(0.00184223 -0.0889876 0.00107618)
(-0.000191746 -0.0898735 0.000381489)
(-6.73469e-06 -0.0973534 9.91697e-05)
(-6.71528e-06 -0.0973531 -9.89643e-05)
(4.09087e-05 -0.0971186 9.31082e-05)
(4.0955e-05 -0.0971184 -9.2913e-05)
(4.09592e-05 -0.0915215 9.69163e-05)
(4.107e-05 -0.0915216 -9.67049e-05)
(7.70374e-05 -0.0913498 9.07534e-05)
(7.71632e-05 -0.09135 -9.05526e-05)
(0.000178387 -0.0974293 -0.000322061)
(-0.000469571 -0.0983787 -0.000176228)
(0.00018277 -0.0970971 -0.000309214)
(-0.000503717 -0.0979747 -0.000183538)
(-0.000203748 -0.0903641 -0.000397227)
(0.00192185 -0.0899178 -0.00108728)
(-0.000191519 -0.0898733 -0.000381168)
(0.00184138 -0.0889847 -0.00107576)
(-0.0128204 -0.101291 0.000868758)
(0.0122144 -0.107703 0.477364)
(-0.0126869 -0.101069 0.000817709)
(0.0121142 -0.108233 0.477968)
(-0.0110801 -0.0945554 0.0019249)
(0.00831466 -0.111938 0.4974)
(-0.0109505 -0.0937701 0.0018482)
(0.00825542 -0.113352 0.497527)
(0.0123932 -0.106843 -0.476114)
(-0.0130544 -0.101672 -0.000957012)
(0.0123054 -0.107244 -0.476634)
(-0.0129424 -0.101492 -0.000915408)
(0.00840391 -0.109591 -0.49715)
(-0.0112972 -0.0957943 -0.00205829)
(0.00834616 -0.110693 -0.49726)
(-0.0111802 -0.0952259 -0.00199567)
(-0.000402725 -0.0991178 0.000158715)
(0.000187296 -0.098097 0.000340793)
(-0.000434654 -0.0987607 0.000167796)
(0.000181086 -0.0977641 0.00033257)
(0.00206294 -0.0915563 0.00110172)
(-0.000213856 -0.0913679 0.000421968)
(0.00199879 -0.0907742 0.00109593)
(-0.000209997 -0.090865 0.000410922)
(-6.57592e-05 -0.0978752 0.000108328)
(-6.57809e-05 -0.0978749 -0.000108107)
(-4.10514e-05 -0.097606 0.000104178)
(-4.10537e-05 -0.0976057 -0.000103965)
(-2.61969e-05 -0.0920009 0.000106641)
(-2.60861e-05 -0.0920008 -0.000106413)
(9.84705e-06 -0.0917408 0.000102189)
(9.96163e-06 -0.0917408 -0.000101969)
(0.000187161 -0.0980958 -0.000340538)
(-0.000402031 -0.0991155 -0.000158799)
(0.000180983 -0.0977629 -0.000332316)
(-0.000433937 -0.0987583 -0.000167869)
(-0.000213711 -0.0913668 -0.000421642)
(0.002062 -0.0915532 -0.00110134)
(-0.000209832 -0.0908642 -0.000410597)
(0.00199788 -0.0907711 -0.00109554)
(-0.0130483 -0.101669 0.000956288)
(0.0123867 -0.106842 0.476131)
(-0.0129363 -0.101489 0.000914689)
(0.0122988 -0.107243 0.476651)
(-0.0112917 -0.0957892 0.00205669)
(0.00839891 -0.10959 0.497153)
(-0.0111747 -0.0952205 0.00199408)
(0.00834107 -0.110692 0.497263)
(0.0125417 -0.106187 -0.475021)
(-0.0132444 -0.101987 -0.00102821)
(0.0124659 -0.106493 -0.475475)
(-0.0131505 -0.101836 -0.000994356)
(0.00848135 -0.107738 -0.496934)
(-0.0114817 -0.0967076 -0.00216571)
(0.00842763 -0.108612 -0.49703)
(-0.0113784 -0.0962828 -0.00211469)
(-0.00033995 -0.0997677 0.000139755)
(0.000207944 -0.0987481 0.000352173)
(-0.000369864 -0.0994531 0.000149331)
(0.000196773 -0.0984257 0.000347186)
(0.00217447 -0.0929251 0.00110758)
(-0.000214006 -0.0923536 0.000438184)
(0.00212375 -0.0922707 0.00110541)
(-0.000214776 -0.0918649 0.000430942)
(-9.52471e-05 -0.0984418 0.000114501)
(-9.53003e-05 -0.0984415 -0.000114273)
(-8.33633e-05 -0.0981557 0.000111723)
(-8.34017e-05 -0.0981553 -0.000111497)
(-8.29867e-05 -0.0926086 0.000113347)
(-8.28847e-05 -0.0926083 -0.000113108)
(-5.73462e-05 -0.092292 0.000110329)
(-5.72398e-05 -0.0922918 -0.000110095)
(0.000207758 -0.0987469 -0.000351919)
(-0.000339276 -0.0997655 -0.00013985)
(0.000196611 -0.0984245 -0.000346932)
(-0.000369178 -0.0994508 -0.000149423)
(-0.000213901 -0.0923523 -0.000437856)
(0.0021735 -0.092922 -0.00110721)
(-0.000214649 -0.0918637 -0.000430615)
(0.00212279 -0.0922676 -0.00110504)
(-0.0132384 -0.101985 0.00102749)
(0.0125352 -0.106186 0.475038)
(-0.0131445 -0.101834 0.00099363)
(0.0124593 -0.106493 0.475492)
(-0.0114762 -0.0967031 0.0021641)
(0.00847643 -0.107737 0.496937)
(-0.0113728 -0.0962781 0.00211309)
(0.00842263 -0.108611 0.497033)
(0.012669 -0.105677 -0.474038)
(-0.0133993 -0.102258 -0.00108603)
(0.0126027 -0.105917 -0.47443)
(-0.0133229 -0.102127 -0.00105851)
(0.00854885 -0.106254 -0.496742)
(-0.0116365 -0.0974068 -0.00225302)
(0.008499 -0.106957 -0.496825)
(-0.0115476 -0.0970787 -0.00221157)
(-0.000280507 -0.100336 0.000121065)
(0.000236977 -0.0993648 0.00035854)
(-0.000308664 -0.100062 0.000130314)
(0.00022175 -0.0990617 0.000355819)
(0.00226198 -0.0940682 0.00110827)
(-0.000197463 -0.0932872 0.000448416)
(0.00222338 -0.0935218 0.0011084)
(-0.000207589 -0.0928276 0.000443911)
(-0.000103642 -0.0990161 0.000118251)
(-0.00010372 -0.0990157 -0.000118106)
(-0.0001017 -0.0987296 0.000116639)
(-0.000101767 -0.0987292 -0.000116421)
(-0.000119578 -0.0932878 0.000117682)
(-0.000119498 -0.0932874 -0.000117457)
(-0.000103362 -0.0929417 0.00011576)
(-0.000103267 -0.0929414 -0.000115522)
(0.00023674 -0.0993635 -0.000358359)
(-0.000279862 -0.100333 -0.000120995)
(0.000221539 -0.0990605 -0.000355568)
(-0.000308002 -0.100059 -0.000130391)
(-0.000197467 -0.0932858 -0.000448092)
(0.00226099 -0.0940653 -0.00110787)
(-0.000207537 -0.0928262 -0.00044358)
(0.0022224 -0.0935188 -0.00110802)
(-0.0133933 -0.102256 0.0010855)
(0.0126625 -0.105677 0.474056)
(-0.0133168 -0.102125 0.00105782)
(0.0125962 -0.105916 0.474447)
(-0.011631 -0.0974028 0.00225147)
(0.008544 -0.106253 0.496745)
(-0.011542 -0.0970745 0.00220997)
(0.00849406 -0.106956 0.496828)
(0.0127798 -0.105269 -0.473145)
(-0.0135185 -0.102486 -0.00113534)
(0.0127214 -0.105464 -0.473496)
(-0.01346 -0.102378 -0.00111012)
(0.00860708 -0.10504 -0.496572)
(-0.0117507 -0.0979542 -0.00232429)
(0.0085618 -0.105618 -0.496645)
(-0.0116839 -0.0976972 -0.00229021)
(-0.000222582 -0.10083 0.000101519)
(0.000274246 -0.0999342 0.000363098)
(-0.00025043 -0.10059 0.000112627)
(0.000254786 -0.0996558 0.000359977)
(0.00231849 -0.0950275 0.00110513)
(-0.000163881 -0.0941529 0.000454579)
(0.00229649 -0.0945676 0.00110727)
(-0.000182933 -0.0937286 0.000451834)
(-9.49056e-05 -0.0995738 0.000120471)
(-9.50608e-05 -0.0995734 -0.000119908)
(-0.000101139 -0.0992983 0.000119281)
(-0.000101234 -0.0992979 -0.000119435)
(-0.000138291 -0.0939935 0.000120766)
(-0.000138267 -0.093993 -0.000119666)
(-0.000131141 -0.0936393 0.000119189)
(-0.000131099 -0.093639 -0.000118944)
(0.000273784 -0.0999329 -0.000360493)
(-0.000221964 -0.100828 -0.00010483)
(0.000254506 -0.0996547 -0.0003608)
(-0.000249815 -0.100589 -0.000111304)
(-0.000164103 -0.0941513 -0.000454051)
(0.00231856 -0.0950248 -0.00110577)
(-0.00018307 -0.0937273 -0.000451577)
(0.00229522 -0.094565 -0.00110681)
(-0.0135125 -0.102484 0.00113089)
(0.0127734 -0.105268 0.473167)
(-0.013454 -0.102375 0.0011109)
(0.0127149 -0.105462 0.473512)
(-0.0117464 -0.0979506 0.00232188)
(0.00860187 -0.105039 0.496575)
(-0.0116781 -0.0976932 0.00228873)
(0.00855701 -0.105617 0.496647)
(0.0128791 -0.104923 -0.472331)
(-0.0136031 -0.102667 -0.00117226)
(0.0128255 -0.10509 -0.472635)
(-0.0135615 -0.102582 -0.0011522)
(0.00865582 -0.104024 -0.496419)
(-0.0118315 -0.0983783 -0.00238098)
(0.00861393 -0.104512 -0.496482)
(-0.0117788 -0.0981798 -0.00235374)
(-0.000162072 -0.101254 8.65611e-05)
(0.000320158 -0.100444 0.000363395)
(-0.00019177 -0.101051 9.6093e-05)
(0.000296264 -0.100197 0.000361758)
(0.00235591 -0.0958391 0.001101)
(-0.0001208 -0.0949433 0.000457632)
(0.0023415 -0.0954499 0.00110364)
(-0.000142117 -0.0945577 0.000456268)
(-7.24426e-05 -0.100093 0.000121206)
(-7.25399e-05 -0.100093 -0.000120797)
(-8.52285e-05 -0.0998395 0.000120515)
(-8.53104e-05 -0.099839 -0.00012084)
(-0.000139666 -0.0946876 0.000121828)
(-0.000139588 -0.0946871 -0.000121536)
(-0.000140831 -0.0943436 0.000121106)
(-0.000140792 -0.094343 -0.000121036)
(0.00031989 -0.100443 -0.000362462)
(-0.000161385 -0.101253 -8.76434e-05)
(0.000296 -0.100196 -0.000363302)
(-0.000191151 -0.101049 -9.37766e-05)
(-0.00012084 -0.0949417 -0.000457269)
(0.00235542 -0.0958365 -0.0011008)
(-0.000142305 -0.0945558 -0.000456075)
(0.00234004 -0.0954471 -0.00110297)
(-0.013597 -0.102665 0.00117055)
(0.0128727 -0.104922 0.47235)
(-0.0135554 -0.102581 0.00115408)
(0.012819 -0.10509 0.47265)
(-0.0118265 -0.0983751 0.00237923)
(0.00865092 -0.104022 0.496422)
(-0.0117728 -0.0981765 0.00235245)
(0.00860927 -0.10451 0.496485)
(0.0129728 -0.104607 -0.471586)
(-0.0136539 -0.102796 -0.00120261)
(0.0129213 -0.104763 -0.471848)
(-0.0136292 -0.102738 -0.00118774)
(0.00869846 -0.103141 -0.496282)
(-0.0118861 -0.0986995 -0.00242636)
(0.00865896 -0.103569 -0.496337)
(-0.011845 -0.0985507 -0.00240488)
(-9.38471e-05 -0.101603 7.27829e-05)
(0.000376148 -0.100882 0.000362749)
(-0.000128101 -0.101438 7.98439e-05)
(0.000347181 -0.100672 0.000362944)
(0.00238363 -0.0965217 0.00109546)
(-7.97329e-05 -0.0956487 0.000458706)
(0.00237302 -0.0961954 0.00109832)
(-9.91993e-05 -0.0953067 0.000458349)
(-3.03889e-05 -0.100552 0.00012122)
(-3.05097e-05 -0.100551 -0.000120991)
(-5.53106e-05 -0.100331 0.000121236)
(-5.5422e-05 -0.10033 -0.000121058)
(-0.000136219 -0.0953413 0.000122425)
(-0.000136139 -0.0953407 -0.000122192)
(-0.000136796 -0.0950203 0.000122193)
(-0.000136726 -0.0950198 -0.000121967)
(0.000375873 -0.100881 -0.00036248)
(-9.31443e-05 -0.101601 -7.2977e-05)
(0.000346905 -0.100671 -0.000362893)
(-0.000127416 -0.101436 -7.97485e-05)
(-7.9824e-05 -0.0956471 -0.000458396)
(0.00238288 -0.0965191 -0.00109516)
(-9.93011e-05 -0.095305 -0.00045805)
(0.00237219 -0.0961928 -0.00109799)
(-0.0136477 -0.102794 0.00120183)
(0.0129664 -0.104606 0.471605)
(-0.013623 -0.102737 0.00118726)
(0.0129149 -0.104762 0.471866)
(-0.0118808 -0.0986966 0.00242472)
(0.00869365 -0.10314 0.496285)
(-0.0118396 -0.0985476 0.00240327)
(0.00865412 -0.103568 0.49634)
(0.0130648 -0.104289 -0.470882)
(-0.0136688 -0.102862 -0.00122705)
(0.0130134 -0.10445 -0.47112)
(-0.0136621 -0.102838 -0.00121534)
(0.00873466 -0.102341 -0.496157)
(-0.0119117 -0.0989251 -0.0024619)
(0.00869756 -0.102734 -0.496205)
(-0.0118852 -0.0988242 -0.00244518)
(-1.16046e-05 -0.101867 6.05053e-05)
(0.000445815 -0.101238 0.000361359)
(-5.36441e-05 -0.101746 6.64605e-05)
(0.000409364 -0.101071 0.000362048)
(0.00240393 -0.0970826 0.00108937)
(-4.06943e-05 -0.0962603 0.000458397)
(0.00239691 -0.0968168 0.00109241)
(-5.99186e-05 -0.0959666 0.000458679)
(3.53525e-05 -0.100938 0.000120733)
(3.52333e-05 -0.100937 -0.000120524)
(3.54176e-07 -0.100755 0.000120986)
(2.3251e-07 -0.100754 -0.000120769)
(-0.000125672 -0.0959321 0.000122469)
(-0.000125593 -0.0959315 -0.000122257)
(-0.00013276 -0.0956458 0.000122501)
(-0.000132681 -0.0956452 -0.000122276)
(0.000445545 -0.101237 -0.00036114)
(-1.08673e-05 -0.101866 -6.06648e-05)
(0.00040909 -0.10107 -0.000361825)
(-5.29246e-05 -0.101744 -6.66067e-05)
(-4.0801e-05 -0.0962587 -0.000458106)
(0.00240314 -0.0970802 -0.00108908)
(-6.00181e-05 -0.0959649 -0.000458377)
(0.00239613 -0.0968143 -0.00109211)
(-0.0136626 -0.102861 0.00122633)
(0.0130585 -0.104288 0.470901)
(-0.013656 -0.102836 0.00121462)
(0.013007 -0.104449 0.471139)
(-0.0119064 -0.0989224 0.00246026)
(0.00872987 -0.10234 0.49616)
(-0.0118798 -0.0988214 0.00244355)
(0.00869272 -0.102732 0.496209)
(0.013162 -0.103939 -0.47023)
(-0.0136467 -0.102849 -0.00124546)
(0.0131072 -0.10412 -0.47044)
(-0.0136588 -0.102866 -0.00123643)
(0.00876809 -0.101577 -0.496043)
(-0.0119118 -0.0990524 -0.00248899)
(0.00873221 -0.101957 -0.496085)
(-0.0118973 -0.0990009 -0.00247634)
(9.01223e-05 -0.102034 5.00903e-05)
(0.000532756 -0.101497 0.000359615)
(3.75962e-05 -0.101964 5.51074e-05)
(0.000486958 -0.101381 0.000360454)
(0.0024156 -0.0975242 0.00108313)
(2.07601e-07 -0.0967659 0.000457127)
(0.00241306 -0.097318 0.00108622)
(-2.03856e-05 -0.0965269 0.000457851)
(0.000119022 -0.101228 0.000120024)
(0.000118924 -0.101228 -0.000119862)
(7.48808e-05 -0.101096 0.000120381)
(7.4768e-05 -0.101096 -0.000120188)
(-0.000104508 -0.0964346 0.00012211)
(-0.000104418 -0.0964339 -0.000121971)
(-0.000115248 -0.0961955 0.000122332)
(-0.000115165 -0.0961949 -0.000122144)
(0.000532522 -0.101496 -0.000359446)
(9.09112e-05 -0.102033 -5.02834e-05)
(0.000486698 -0.10138 -0.000360252)
(3.83569e-05 -0.101962 -5.52767e-05)
(9.69737e-08 -0.0967642 -0.000456894)
(0.00241477 -0.0975218 -0.00108289)
(-2.04966e-05 -0.0965253 -0.00045758)
(0.00241225 -0.0973155 -0.00108595)
(-0.0136404 -0.102847 0.00124471)
(0.0131558 -0.103938 0.47025)
(-0.0136526 -0.102865 0.0012357)
(0.0131009 -0.104119 0.470459)
(-0.0119065 -0.0990498 0.00248727)
(0.00876334 -0.101575 0.496046)
(-0.011892 -0.0989983 0.00247468)
(0.0087274 -0.101956 0.496089)
(0.0132696 -0.103525 -0.469617)
(-0.0135859 -0.102737 -0.00126063)
(0.0132091 -0.103742 -0.469804)
(-0.0136173 -0.102807 -0.00125373)
(0.00880039 -0.100801 -0.495938)
(-0.0118827 -0.0990724 -0.00250527)
(0.00876383 -0.101194 -0.495976)
(-0.0118841 -0.0990756 -0.00249846)
(0.000213316 -0.102092 4.08235e-05)
(0.000642019 -0.101639 0.000357011)
(0.000150831 -0.102078 4.5679e-05)
(0.00058513 -0.101584 0.000358528)
(0.00242237 -0.0978441 0.00107695)
(4.69849e-05 -0.0971471 0.00045503)
(0.00242003 -0.0976994 0.00108003)
(2.27784e-05 -0.096973 0.000456201)
(0.000223722 -0.101401 0.000118931)
(0.000223728 -0.101401 -0.000119115)
(0.000168515 -0.101331 0.000119512)
(0.00016845 -0.10133 -0.000119437)
(-7.599e-05 -0.0968185 0.000121402)
(-7.5923e-05 -0.0968179 -0.000121561)
(-9.20008e-05 -0.096643 0.000121808)
(-9.19103e-05 -0.0966423 -0.000121772)
(0.000642215 -0.101638 -0.000358168)
(0.000215269 -0.102091 -4.2569e-05)
(0.000584965 -0.101582 -0.000358489)
(0.000151676 -0.102076 -4.58688e-05)
(4.68618e-05 -0.0971454 -0.000455158)
(0.00242119 -0.0978418 -0.00107684)
(2.26699e-05 -0.0969712 -0.000456055)
(0.00241917 -0.0976969 -0.00107968)
(-0.0135793 -0.102735 0.00126041)
(0.0132637 -0.103524 0.469639)
(-0.0136111 -0.102805 0.00125295)
(0.013203 -0.103741 0.469824)
(-0.011878 -0.0990697 0.00250422)
(0.00879555 -0.100799 0.495943)
(-0.0118788 -0.099073 0.00249735)
(0.00875911 -0.101192 0.49598)
(0.0133929 -0.103014 -0.46904)
(-0.0134884 -0.102501 -0.00127086)
(0.0133238 -0.103284 -0.469205)
(-0.0135378 -0.102636 -0.00126624)
(0.00883798 -0.0999717 -0.495843)
(-0.0118357 -0.0989693 -0.00252148)
(0.00879773 -0.100395 -0.495875)
(-0.0118456 -0.0990412 -0.00251351)
(0.000343373 -0.102024 3.49559e-05)
(0.000771305 -0.101641 0.000354929)
(0.000279602 -0.102076 3.79761e-05)
(0.00070436 -0.101659 0.00035625)
(0.00246539 -0.0980281 0.00107123)
(0.00010676 -0.0973821 0.000452525)
(0.00244025 -0.0979544 0.00107402)
(7.52343e-05 -0.0972839 0.000453878)
(0.00035436 -0.101431 0.00011799)
(0.000354268 -0.101431 -0.000117862)
(0.000285516 -0.101435 0.000118487)
(0.000285469 -0.101435 -0.000118457)
(-3.23758e-05 -0.0970572 0.000120709)
(-3.23403e-05 -0.0970566 -0.000120623)
(-5.62115e-05 -0.096957 0.000121087)
(-5.6155e-05 -0.0969564 -0.000121115)
(0.000771043 -0.10164 -0.000354807)
(0.000343982 -0.102023 -3.51953e-05)
(0.000704233 -0.101658 -0.000356363)
(0.000280504 -0.102075 -3.84067e-05)
(0.000106699 -0.0973805 -0.00045234)
(0.00246491 -0.0980261 -0.00107103)
(7.51563e-05 -0.0972824 -0.00045381)
(0.00243957 -0.0979524 -0.0010739)
(-0.0134821 -0.1025 0.00127012)
(0.0133867 -0.103013 0.46906)
(-0.0135315 -0.102635 0.00126551)
(0.0133177 -0.103283 0.469226)
(-0.0118303 -0.0989669 0.0025198)
(0.00883323 -0.0999698 0.495847)
(-0.0118403 -0.0990388 0.00251181)
(0.00879293 -0.100393 0.49588)
(0.0135382 -0.102372 -0.468488)
(-0.0133553 -0.102115 -0.00127572)
(0.013457 -0.102712 -0.468632)
(-0.0134223 -0.10233 -0.00127384)
(0.00888059 -0.0990531 -0.495754)
(-0.0117525 -0.0987081 -0.00252819)
(0.00883695 -0.0995268 -0.495782)
(-0.0117787 -0.0988587 -0.00252549)
(0.000467964 -0.101799 3.01686e-05)
(0.000922618 -0.101475 0.000350608)
(0.000408907 -0.101935 3.24001e-05)
(0.000844399 -0.101581 0.000353114)
(0.0025783 -0.0980402 0.00106573)
(0.000186198 -0.0974435 0.000449007)
(0.00251385 -0.0980588 0.0010684)
(0.000144127 -0.0974364 0.000450906)
(0.000515734 -0.101289 0.000116707)
(0.000515611 -0.101289 -0.000116525)
(0.000431104 -0.101383 0.000117373)
(0.000430989 -0.101383 -0.000117207)
(2.85102e-05 -0.0971262 0.000119654)
(2.85174e-05 -0.0971255 -0.000119475)
(-3.67133e-06 -0.0971145 0.000120239)
(-3.66421e-06 -0.0971139 -0.000120091)
(0.000922276 -0.101474 -0.000350395)
(0.000468369 -0.101797 -3.03397e-05)
(0.000844069 -0.10158 -0.000352922)
(0.000409307 -0.101934 -3.25912e-05)
(0.000186152 -0.0974418 -0.000448735)
(0.00257803 -0.0980379 -0.00106546)
(0.000144091 -0.0974347 -0.000450663)
(0.00251367 -0.0980567 -0.00106816)
(-0.0133491 -0.102114 0.001275)
(0.0135319 -0.102371 0.468509)
(-0.0134161 -0.102328 0.00127311)
(0.0134508 -0.102711 0.468652)
(-0.0117471 -0.0987058 0.00252655)
(0.00887584 -0.099051 0.495758)
(-0.0117733 -0.0988564 0.00252383)
(0.00883216 -0.0995248 0.495786)
(0.0137119 -0.101559 -0.467967)
(-0.0131762 -0.101541 -0.00127671)
(0.0136157 -0.101989 -0.468095)
(-0.0132684 -0.101853 -0.00127628)
(0.00893183 -0.0979929 -0.495672)
(-0.0116391 -0.0982725 -0.00252941)
(0.00888361 -0.0985431 -0.495697)
(-0.0116804 -0.0985139 -0.00252933)
(0.000615982 -0.101356 2.69217e-05)
(0.00110619 -0.101104 0.000345476)
(0.000537133 -0.101604 2.84294e-05)
(0.00100969 -0.101317 0.00034793)
(0.00270892 -0.0978377 0.00106044)
(0.000278538 -0.0973022 0.000445044)
(0.00264688 -0.0979665 0.00106302)
(0.000230594 -0.0974006 0.000447015)
(0.000713145 -0.100946 0.000115199)
(0.00071302 -0.100946 -0.000115007)
(0.000609483 -0.101145 0.000115938)
(0.000609358 -0.101145 -0.000115748)
(0.000101857 -0.0969994 0.000118499)
(0.000101874 -0.0969988 -0.0001183)
(6.21128e-05 -0.0970907 0.000119058)
(6.21259e-05 -0.0970901 -0.000118865)
(0.00110586 -0.101103 -0.000345254)
(0.000616469 -0.101355 -2.7078e-05)
(0.00100936 -0.101316 -0.00034771)
(0.000537582 -0.101603 -2.85908e-05)
(0.00027847 -0.0973004 -0.000444755)
(0.00270848 -0.0978353 -0.00106015)
(0.000230535 -0.0973989 -0.000446731)
(0.00264651 -0.0979642 -0.00106273)
(-0.01317 -0.10154 0.00127601)
(0.0137056 -0.101558 0.467988)
(-0.0132622 -0.101852 0.00127557)
(0.0136094 -0.101988 0.468115)
(-0.0116337 -0.0982702 0.00252779)
(0.00892708 -0.0979907 0.495676)
(-0.011675 -0.0985115 0.00252771)
(0.00887882 -0.098541 0.4957)
(0.0139203 -0.100536 -0.467471)
(-0.0129423 -0.100747 -0.00127505)
(0.0138062 -0.101076 -0.46758)
(-0.0130623 -0.101174 -0.00127592)
(0.00899532 -0.0967438 -0.495596)
(-0.0114934 -0.0976271 -0.00252582)
(0.00894047 -0.0973947 -0.495617)
(-0.0115506 -0.0979781 -0.00252809)
(0.000812935 -0.100683 2.49506e-05)
(0.00133134 -0.100498 0.000340546)
(0.00070968 -0.10105 2.58428e-05)
(0.00121356 -0.100832 0.000342916)
(0.00283961 -0.0973984 0.0010553)
(0.000384286 -0.0969235 0.000440667)
(0.00277604 -0.0976491 0.00105781)
(0.00032992 -0.0971444 0.000442874)
(0.000951907 -0.100368 0.000113634)
(0.000951785 -0.100368 -0.000113443)
(0.000827113 -0.100689 0.000114393)
(0.00082699 -0.100688 -0.000114201)
(0.00019444 -0.0966347 0.000117182)
(0.000194461 -0.0966341 -0.000116983)
(0.00014582 -0.0968488 0.000117855)
(0.000145839 -0.0968482 -0.000117655)
(0.00133102 -0.100498 -0.000340325)
(0.000813414 -0.100682 -2.51018e-05)