/*--------------------------------*- C++ -*----------------------------------*\
  =========                 |
  \\      /  F ield         | OpenFOAM: The Open Source CFD Toolbox
   \\    /   O peration     | Website:  https://openfoam.org
    \\  /    A nd           | Version:  9
     \\/     M anipulation  |
\*---------------------------------------------------------------------------*/
FoamFile
{
    format      ascii;
    class       volScalarField;
    location    "2.3";
    object      nut;
}
// * * * * * * * * * * * * * * * * * * * * * * * * * * * * * * * * * * * * * //

dimensions      [0 2 -1 0 0 0 0];

internalField   nonuniform List<scalar> 
36360
(
0.00485243
0.00432838
0.00136358
0.00180542
0.000678135
0.000723087
0.000244526
0.00032648
0.00260309
0.00114329
0.000550048
0.000216968
0.000404821
0.000214145
0.000192709
0.000172179
0.000496876
0.000496897
0.000171773
0.000171774
0.000168438
0.000168438
0.000173047
0.000173047
0.00114329
0.00260301
0.000216972
0.000550042
0.000214144
0.000404811
0.000172179
0.000192709
0.00432817
0.00485211
0.00180538
0.00136358
0.000723072
0.000678126
0.000326477
0.000244528
0.00839748
0.00774731
0.00688803
0.00621623
0.00131377
0.00120587
0.00108737
0.00101415
0.00620659
0.0052737
0.00451789
0.00320792
0.000928523
0.00068489
0.00070106
0.00041319
0.005048
0.00504795
0.00234507
0.00234507
0.000530759
0.000530748
0.000266327
0.000266324
0.00527341
0.00620604
0.00320778
0.00451756
0.000684856
0.000928473
0.000413173
0.000701031
0.00774655
0.00839658
0.00621576
0.00688746
0.00120581
0.00131371
0.00101411
0.00108733
0.0107789
0.010273
0.00965845
0.00907812
0.00158169
0.00146511
0.00146515
0.00134874
0.00904079
0.00846383
0.0077061
0.00699967
0.0012315
0.00106707
0.00109643
0.000903633
0.0083526
0.0083524
0.00685797
0.00685783
0.000985001
0.000984979
0.000799713
0.000799695
0.00846316
0.00903968
0.00699917
0.00770525
0.001067
0.00123141
0.000903583
0.00109636
0.0102716
0.0107773
0.00907703
0.00965724
0.00146501
0.00158158
0.00134866
0.00146507
0.0127003
0.0123265
0.011788
0.011352
0.00176145
0.00165031
0.00167833
0.00156411
0.0112873
0.0108429
0.0102284
0.00973155
0.00144206
0.00130694
0.00134476
0.00119783
0.0107438
0.0107435
0.00962994
0.00962966
0.00124305
0.00124302
0.00112712
0.0011271
0.0108419
0.0112856
0.0097307
0.010227
0.00130685
0.00144193
0.00119776
0.00134465
0.0123244
0.012698
0.0113503
0.0117861
0.00165016
0.0017613
0.00156398
0.0016782
0.0142724
0.0139882
0.013527
0.0132013
0.00189783
0.00179249
0.00183399
0.00172582
0.0130715
0.01269
0.01223
0.0118219
0.00160055
0.00148062
0.00152654
0.00140002
0.0125909
0.0125905
0.011723
0.0117226
0.00142477
0.00142474
0.00134076
0.00134073
0.0126887
0.0130694
0.0118208
0.0122281
0.00148052
0.0016004
0.00139993
0.0015264
0.0139856
0.0142695
0.013199
0.0135245
0.00179231
0.00189764
0.00172566
0.00183382
0.0155405
0.0153247
0.0149407
0.0146928
0.00200363
0.00190335
0.00195397
0.00185127
0.0144907
0.0141448
0.0138212
0.0134596
0.00172286
0.00161251
0.00166553
0.00155087
0.0140461
0.0140456
0.0133604
0.01336
0.00156149
0.00156145
0.00149769
0.00149765
0.0141433
0.0144883
0.0134582
0.013819
0.00161239
0.00172269
0.00155076
0.00166537
0.0153217
0.0155371
0.01469
0.0149376
0.00190315
0.00200342
0.00185107
0.00195377
0.0165554
0.0163928
0.0160762
0.0158885
0.00208613
0.00199007
0.00204739
0.00194931
0.0156183
0.0152957
0.0150865
0.0147533
0.00181804
0.00171439
0.00177338
0.00166665
0.0151984
0.0151978
0.0146552
0.0146546
0.00166668
0.00166664
0.00161744
0.00161739
0.0152941
0.0156157
0.0147517
0.015084
0.00171426
0.00181786
0.00166654
0.0017732
0.0163895
0.0165516
0.0158853
0.0160726
0.00198985
0.0020859
0.0019491
0.00204716
0.0173617
0.0172414
0.0169816
0.0168411
0.00215039
0.00205778
0.00212022
0.00202597
0.0165115
0.0162055
0.0160905
0.0157768
0.0018922
0.00179348
0.00185741
0.0017564
0.0161098
0.0161092
0.0156802
0.0156796
0.00174819
0.00174814
0.00170999
0.00170995
0.0162038
0.0165087
0.0157751
0.0160878
0.00179335
0.00189201
0.00175628
0.00185722
0.0172378
0.0173576
0.0168377
0.0169777
0.00205755
0.00215015
0.00202575
0.00211999
0.0179985
0.0179136
0.0176985
0.0175967
0.00220019
0.00211038
0.00217684
0.0020857
0.0172161
0.0169221
0.0168843
0.0165848
0.00194978
0.00185479
0.0019228
0.00182608
0.0168279
0.0168273
0.0164897
0.0164891
0.00181132
0.00181127
0.00178176
0.00178171
0.0169203
0.0172132
0.0165829
0.0168815
0.00185466
0.00194959
0.00182595
0.00192261
0.0179098
0.0179942
0.017593
0.0176945
0.00211015
0.00219994
0.00208547
0.0021766
0.0184962
0.0184397
0.0182626
0.0181926
0.00223837
0.0021508
0.00222053
0.0021319
0.0177671
0.0174821
0.0175084
0.0172191
0.00199409
0.00190198
0.00197339
0.00187994
0.0173892
0.0173886
0.0171255
0.0171248
0.0018599
0.00185985
0.00183721
0.00183716
0.0174802
0.0177641
0.0172172
0.0175054
0.00190185
0.00199389
0.00187981
0.0019732
0.0184358
0.0184917
0.0181887
0.0182583
0.00215056
0.00223811
0.00213166
0.00222028
0.0188789
0.0188448
0.0187
0.0186552
0.00226707
0.00218127
0.00225373
0.00216709
0.0181917
0.0179139
0.017993
0.0177118
0.00202763
0.00193777
0.00201204
0.00192113
0.0178224
0.0178218
0.0176195
0.0176189
0.00189678
0.00189674
0.00187963
0.00187959
0.017912
0.0181886
0.0177098
0.01799
0.00193764
0.00202743
0.001921
0.00201184
0.0188408
0.0188743
0.0186513
0.0186957
0.00218103
0.0022668
0.00216685
0.00225347
0.0191663
0.0191497
0.0190329
0.0190079
0.00228797
0.00220355
0.00227835
0.00219328
0.0185121
0.0182401
0.0183631
0.0180882
0.00205236
0.00196427
0.00204097
0.00195205
0.01815
0.0181493
0.0179974
0.0179967
0.00192415
0.0019241
0.00191152
0.00191147
0.0182381
0.0185089
0.0180863
0.0183599
0.00196414
0.00205216
0.00195192
0.00204077
0.0191456
0.0191616
0.0190038
0.0190284
0.00220331
0.0022877
0.00219304
0.00227809
0.0193743
0.0193713
0.0192787
0.0192692
0.00230242
0.00221908
0.00229587
0.00221202
0.018746
0.0184788
0.0186382
0.0183686
0.00206983
0.00198314
0.00206189
0.00197455
0.01839
0.0183893
0.0182791
0.0182784
0.00194369
0.00194364
0.00193478
0.00193474
0.0184768
0.0187428
0.0183666
0.018635
0.001983
0.00206962
0.00197442
0.00206169
0.0193671
0.0193695
0.0192651
0.0192741
0.00221884
0.00230215
0.00221178
0.00229561
0.0195156
0.0195231
0.019452
0.0194544
0.00231147
0.00222895
0.00230751
0.0022246
0.0189075
0.0186445
0.0188343
0.0185692
0.00208124
0.00199566
0.0020762
0.0019901
0.0185569
0.0185562
0.0184809
0.0184802
0.00195675
0.0019567
0.00195094
0.00195089
0.0186425
0.0189042
0.0185672
0.0188311
0.00199552
0.00208104
0.00198996
0.00207599
0.0195189
0.0195107
0.0194502
0.0194473
0.0022287
0.00231121
0.00222436
0.00230725
0.0196007
0.019616
0.0195638
0.0195753
0.00231597
0.00223405
0.00231419
0.00223198
0.0190081
0.0187487
0.018964
0.0187028
0.00208757
0.00200286
0.00208496
0.00199985
0.0186622
0.0186615
0.0186157
0.018615
0.00196438
0.00196433
0.00196117
0.00196112
0.0187467
0.0190048
0.0187008
0.0189607
0.00200273
0.00208737
0.00199971
0.00208476
0.0196118
0.0195957
0.0195711
0.019559
0.00223381
0.0023157
0.00223173
0.00231392
0.0196373
0.0196583
0.0196227
0.0196413
0.00231654
0.00223503
0.00231663
0.00223495
0.0190561
0.0188004
0.0190376
0.0187799
0.00208954
0.00200553
0.00208905
0.00200471
0.0187153
0.0187146
0.0186939
0.0186931
0.00196741
0.00196736
0.00196641
0.00196636
0.0187983
0.0190527
0.0187778
0.0190343
0.0020054
0.00208933
0.00200458
0.00208884
0.019654
0.0196322
0.019637
0.0196178
0.00223478
0.00231627
0.00223471
0.00231636
0.0196318
0.0196577
0.0196392
0.0196629
0.00231372
0.00223253
0.0023156
0.00223426
0.0190613
0.0188083
0.0190638
0.0188084
0.00208792
0.00200449
0.00208918
0.00200541
0.0187242
0.0187234
0.0187233
0.0187226
0.00196663
0.00196659
0.00196739
0.00196734
0.0188062
0.0190579
0.0188063
0.0190604
0.00200435
0.00208771
0.00200527
0.00208897
0.0196529
0.0196266
0.0196585
0.0196344
0.00223227
0.00231344
0.00223401
0.00231532
0.0195907
0.0196198
0.0196145
0.019642
0.00230769
0.00222669
0.002311
0.0022299
0.0190276
0.0187772
0.0190479
0.0187961
0.00208288
0.00199997
0.00208572
0.00200257
0.0186943
0.0186935
0.0187126
0.0187118
0.00196237
0.00196232
0.00196486
0.00196481
0.0187751
0.0190242
0.018794
0.0190445
0.00199983
0.00208267
0.00200243
0.00208551
0.0196144
0.0195845
0.0196368
0.0196089
0.00222641
0.00230739
0.00222962
0.00231071
0.0195207
0.0195521
0.0195584
0.0195886
0.00229939
0.00221851
0.00230374
0.00222279
0.0189628
0.0187142
0.0189981
0.0187486
0.00207534
0.0019928
0.00207937
0.00199667
0.0186322
0.0186315
0.018666
0.0186653
0.00195538
0.00195533
0.00195917
0.00195912
0.0187121
0.0189595
0.0187464
0.0189948
0.00199266
0.00207513
0.00199653
0.00207916
0.0195478
0.0195155
0.0195837
0.0195526
0.00221824
0.0022991
0.00222253
0.00230345
0.019425
0.0194585
0.0194749
0.0195072
0.00228929
0.00220845
0.00229451
0.00221365
0.0188707
0.0186232
0.0189192
0.0186711
0.00206568
0.00198335
0.00207074
0.00198832
0.018542
0.0185413
0.0185894
0.0185887
0.00194606
0.00194601
0.00195097
0.00195092
0.018621
0.0188671
0.0186689
0.0189157
0.00198321
0.00206546
0.00198818
0.00207052
0.0194533
0.0194194
0.0195029
0.0194702
0.00220813
0.00228895
0.00221335
0.0022942
0.0193074
0.0193411
0.0193691
0.0194026
0.00227743
0.00219651
0.00228353
0.00220264
0.0187537
0.0185073
0.0188145
0.0185673
0.00205409
0.00197191
0.00206009
0.00197785
0.018427
0.0184264
0.0184865
0.0184858
0.00193469
0.00193465
0.0019406
0.00194055
0.0185053
0.0187504
0.0185652
0.018811
0.00197177
0.00205389
0.00197771
0.00205988
0.0193361
0.0193011
0.0193966
0.0193624
0.00219626
0.00227714
0.00220235
0.0022832
0.0191668
0.0192016
0.0192387
0.0192728
0.00226393
0.00218292
0.00227082
0.00218986
0.0186139
0.0183691
0.0186857
0.01844
0.00204075
0.00195866
0.00204761
0.00196548
0.0182898
0.0182891
0.0183601
0.0183594
0.0019215
0.00192145
0.0019283
0.00192825
0.0183672
0.0186108
0.018438
0.0186825
0.00195852
0.00204055
0.00196535
0.0020474
0.0191969
0.0191613
0.0192683
0.0192335
0.0021827
0.00226368
0.00218962
0.00227056
0.0190093
0.0190441
0.0190897
0.0191244
0.002249
0.00216783
0.00225659
0.00217549
0.0184545
0.018211
0.0185358
0.0182916
0.00202582
0.00194378
0.00203344
0.0019514
0.0181324
0.0181317
0.0182126
0.0182119
0.00190665
0.0019066
0.00191425
0.0019142
0.0182091
0.0184517
0.0182897
0.0185328
0.00194364
0.00202562
0.00195126
0.00203325
0.019041
0.0190055
0.0191205
0.019085
0.00216766
0.0022488
0.00217531
0.00225637
0.0188328
0.0188679
0.0189225
0.0189572
0.00223267
0.00215132
0.00224095
0.00215969
0.0182768
0.0180343
0.018367
0.018124
0.00200942
0.00192738
0.00201777
0.00193574
0.0179563
0.0179556
0.0180457
0.018045
0.00189025
0.0018902
0.00189862
0.00189857
0.0180322
0.0182737
0.018122
0.018364
0.00192723
0.00200921
0.0019356
0.00201756
0.0188643
0.0188285
0.0189538
0.0189188
0.0021511
0.00223243
0.00215948
0.00224073
0.0186421
0.018677
0.0187388
0.0187737
0.00221513
0.00213357
0.00222398
0.00214252
0.0180823
0.01784
0.018181
0.0179384
0.00199167
0.00190955
0.00200069
0.00191862
0.0177625
0.0177618
0.0178607
0.0178599
0.0018724
0.00187235
0.00188149
0.00188144
0.0178379
0.0180791
0.0179363
0.0181778
0.00190941
0.00199145
0.00191848
0.00200047
0.018673
0.0186374
0.0187699
0.0187346
0.0021333
0.00221484
0.00214228
0.00222372
0.0184338
0.0184688
0.0185392
0.018574
0.00219633
0.0021145
0.00220584
0.00212413
0.0178706
0.0176284
0.0179777
0.0177354
0.00197258
0.00189034
0.00198227
0.0019001
0.0175515
0.0175508
0.0176582
0.0176575
0.00185313
0.00185308
0.00186292
0.00186287
0.0176263
0.0178673
0.0177333
0.0179744
0.00189019
0.00197237
0.00189995
0.00198205
0.0184646
0.0184289
0.0185698
0.0185346
0.00211425
0.00219606
0.00212387
0.00220556
0.0182109
0.0182454
0.0183237
0.0183584
0.00217623
0.00209407
0.00218642
0.00210442
0.0176426
0.0173999
0.017758
0.0175154
0.00195214
0.00186971
0.00196252
0.00188019
0.0173233
0.0173226
0.0174387
0.0174379
0.00183242
0.00183237
0.00184294
0.00184289
0.0173978
0.0176393
0.0175133
0.0177547
0.00186957
0.00195193
0.00188005
0.00196231
0.0182412
0.0182059
0.0183542
0.018319
0.00209382
0.00217596
0.00210416
0.00218614
0.017971
0.0180049
0.0180925
0.0181266
0.00215465
0.00207212
0.00216559
0.00208323
0.0173974
0.017154
0.0175215
0.0172783
0.0019302
0.00184758
0.00194134
0.00185882
0.0170778
0.017077
0.0172019
0.0172011
0.00181021
0.00181016
0.00182149
0.00182144
0.0171519
0.0173941
0.0172762
0.0175182
0.00184744
0.00192999
0.00185868
0.00194113
0.0180006
0.017966
0.0181223
0.0180877
0.00207187
0.00215438
0.00208298
0.00216532
0.0177139
0.0177471
0.017844
0.0178774
0.00213159
0.00204866
0.00214326
0.00206052
0.0171345
0.0168903
0.0172675
0.0170236
0.00190673
0.0018239
0.00191864
0.00183592
0.0168143
0.0168136
0.0169474
0.0169467
0.00178642
0.00178637
0.0017985
0.00179845
0.0168882
0.0171312
0.0170215
0.0172642
0.00182376
0.00190653
0.00183578
0.00191843
0.0177429
0.017709
0.0178732
0.0178392
0.00204842
0.00213132
0.00206028
0.00214299
0.0174397
0.0174719
0.0175784
0.017611
0.00210709
0.00202371
0.00211948
0.00203632
0.0168535
0.0166082
0.0169956
0.0167508
0.00188171
0.0017986
0.0018944
0.00181144
0.0165324
0.0165316
0.0166749
0.0166741
0.00176098
0.00176093
0.00177389
0.00177385
0.0166061
0.0168502
0.0167487
0.0169924
0.00179846
0.00188151
0.0018113
0.0018942
0.0174677
0.0174348
0.0176068
0.0175737
0.00202347
0.00210683
0.00203608
0.00211922
0.0171477
0.0171782
0.0172955
0.0173267
0.00208113
0.00199722
0.00209425
0.00201061
0.0165533
0.0163065
0.0167053
0.0164591
0.00185507
0.0017716
0.00186858
0.0017853
0.0162308
0.0162301
0.0163833
0.0163826
0.00173381
0.00173376
0.00174761
0.00174756
0.0163045
0.0165501
0.016457
0.016702
0.00177146
0.00185487
0.00178517
0.00186838
0.0171741
0.0171429
0.0173226
0.0172908
0.00199698
0.00208087
0.00201038
0.002094
0.0168368
0.0168648
0.0169942
0.0170234
0.00205364
0.00196911
0.00206754
0.00198332
0.0162325
0.0159838
0.016395
0.0161472
0.00182669
0.00174276
0.00184109
0.00175741
0.015908
0.0159073
0.0160714
0.0160707
0.00170474
0.00170469
0.00171951
0.00171946
0.0159817
0.0162293
0.0161451
0.0163917
0.00174262
0.00182649
0.00175727
0.00184089
0.0168607
0.0168321
0.0170193
0.0169896
0.00196887
0.00205339
0.00198309
0.00206729
0.0165052
0.0165297
0.0166733
0.0166995
0.00202448
0.00193927
0.00203924
0.00195437
0.0158888
0.0156378
0.0160631
0.0158132
0.00179639
0.00171186
0.00181178
0.00172757
0.0155619
0.0155612
0.0157373
0.0157366
0.00167355
0.0016735
0.00168941
0.00168937
0.0156357
0.0158857
0.0158111
0.0160599
0.00171173
0.0017962
0.00172744
0.00181158
0.0165258
0.0165007
0.0166955
0.0166688
0.00193904
0.00202424
0.00195414
0.00203899
0.0161499
0.0161697
0.0163303
0.0163525
0.00199343
0.00190744
0.00200918
0.00192358
0.0155192
0.0152653
0.015707
0.0154544
0.00176389
0.0016786
0.00178043
0.00169554
0.0151892
0.0151885
0.0153783
0.0153776
0.00163992
0.00163987
0.00165705
0.00165701
0.0152633
0.0155161
0.0154523
0.0157038
0.00167847
0.0017637
0.00169541
0.00178023
0.0161658
0.0161455
0.0163486
0.016326
0.00190721
0.00199319
0.00192335
0.00200894
0.0157663
0.0157801
0.0159615
0.0159783
0.00196007
0.00187321
0.00197704
0.00189061
0.0151192
0.0148621
0.0153228
0.0150672
0.00172875
0.00164251
0.00174667
0.00166093
0.014786
0.0147853
0.014991
0.0149903
0.00160337
0.00160332
0.00162203
0.00162199
0.0148601
0.0151162
0.0150652
0.0153197
0.00164238
0.00172856
0.0016608
0.00174648
0.0157764
0.015762
0.0159745
0.0159573
0.00187299
0.00195984
0.00189038
0.0019768
0.0153472
0.0153549
0.0155613
0.0155719
0.0019237
0.001836
0.00194229
0.00185499
0.0146831
0.0144226
0.0149056
0.0146467
0.00169029
0.00160289
0.00170998
0.00162319
0.014347
0.0143463
0.0145706
0.0145699
0.00156321
0.00156317
0.00158378
0.00158374
0.0144207
0.0146802
0.0146447
0.0149027
0.00160277
0.0016901
0.00162306
0.00170979
0.0153513
0.0153431
0.0155682
0.0155572
0.00183579
0.00192347
0.00185477
0.00194206
0.0148821
0.0148846
0.0151208
0.0151256
0.001883
0.00179473
0.00190397
0.00181593
0.0142028
0.0139404
0.0144487
0.0141867
0.00164731
0.00155867
0.00166946
0.00158143
0.0138665
0.0138659
0.0141116
0.0141109
0.00151849
0.00151844
0.00154148
0.00154143
0.0139386
0.0142
0.0141848
0.0144458
0.00155854
0.00164713
0.00158131
0.00166928
0.0148811
0.0148782
0.0151221
0.0151169
0.00179453
0.00188279
0.00181572
0.00190375
0.0143613
0.0143525
0.014628
0.0146274
0.00183568
0.0017468
0.00186031
0.00177188
0.0136662
0.0134099
0.013942
0.0136807
0.00159727
0.00150817
0.00162342
0.00153431
0.0133424
0.0133418
0.0136091
0.0136084
0.00146813
0.00146809
0.00149405
0.00149401
0.0134081
0.0136635
0.0136789
0.0139393
0.00150806
0.00159711
0.0015342
0.00162325
0.0143492
0.0143577
0.0146241
0.0146244
0.00174661
0.00183548
0.00177168
0.00186011
0.0138181
0.0137068
0.0140879
0.0140501
0.00177605
0.00167702
0.00180842
0.00171709
0.0130647
0.0128407
0.0133718
0.0131275
0.00153403
0.0014499
0.00156785
0.00147998
0.0127864
0.0127858
0.013066
0.0130654
0.00141225
0.00141221
0.00144073
0.00144069
0.0128391
0.0130622
0.0131258
0.0133693
0.00144979
0.00153388
0.00147986
0.00156769
0.0137038
0.0138146
0.014047
0.0140845
0.00167685
0.00177587
0.0017169
0.00180822
0.00834609
0.00743361
0.00445384
0.00402671
0.00686896
0.00608554
0.00325611
0.00301732
0.00533828
0.00357098
0.00208412
0.00070955
0.0041071
0.00229418
0.0011777
0.000367529
0.00248422
0.00248427
0.000334086
0.000334099
0.00133843
0.00133845
0.000222753
0.000222756
0.0035709
0.00533791
0.000709559
0.00208399
0.00229412
0.00410686
0.000367533
0.00117765
0.00743293
0.00834511
0.00402638
0.00445337
0.00608511
0.00686838
0.00301715
0.0032559
0.0144312
0.013376
0.0115565
0.0105062
0.0119776
0.0110229
0.00963873
0.00869395
0.0115538
0.010513
0.00849763
0.00710764
0.00923973
0.00816927
0.00674259
0.00530494
0.0102552
0.0102549
0.00661057
0.00661049
0.0078709
0.00787076
0.00463208
0.00463203
0.0105121
0.0115523
0.00710717
0.00849671
0.00816869
0.00923869
0.0053046
0.00674195
0.013374
0.0144287
0.0105049
0.0115549
0.0110215
0.0119759
0.00869308
0.00963771
0.0196767
0.0187292
0.0171199
0.0161111
0.0160442
0.0152019
0.0140853
0.0131787
0.0172735
0.0166654
0.0144837
0.013698
0.0137825
0.0131729
0.0115875
0.0107909
0.0166225
0.0166218
0.0135777
0.0135773
0.0131206
0.0131201
0.0106571
0.0106568
0.0166635
0.0172703
0.0136966
0.0144814
0.0131716
0.0137804
0.0107899
0.0115859
0.0187252
0.0196721
0.0161082
0.0171165
0.0151992
0.0160411
0.0131767
0.014083
0.0244031
0.0235754
0.0221056
0.0212201
0.0195878
0.0188659
0.017877
0.0170976
0.0223795
0.0219799
0.0199072
0.0194213
0.0177039
0.017303
0.0158202
0.0153343
0.0220044
0.0220033
0.0194212
0.0194203
0.0173129
0.0173122
0.0153225
0.0153219
0.0219767
0.0223745
0.0194188
0.0199032
0.0173009
0.0177005
0.0153326
0.0158175
0.0235692
0.0243961
0.0212151
0.0220999
0.0188617
0.0195831
0.0170942
0.0178732
0.0285616
0.0278346
0.0265553
0.0257806
0.0226186
0.0220028
0.0211656
0.0204993
0.0268163
0.0265256
0.0246815
0.0243439
0.021017
0.0207228
0.0194334
0.0190935
0.0265721
0.0265705
0.0243821
0.0243808
0.020751
0.02075
0.0191149
0.0191141
0.0265212
0.0268096
0.0243401
0.0246756
0.02072
0.0210126
0.019091
0.0194295
0.0278263
0.0285522
0.0257734
0.0265472
0.0219973
0.0226124
0.0204945
0.0211603
0.032127
0.0314808
0.0304164
0.0297321
0.0251616
0.0246318
0.0239477
0.0233773
0.0305887
0.0303622
0.0287819
0.0285267
0.0237712
0.0235397
0.0224592
0.0221998
0.0304162
0.0304143
0.0285776
0.0285759
0.023574
0.0235728
0.0222316
0.0222306
0.0303568
0.0305805
0.0285218
0.0287744
0.0235362
0.0237659
0.0221967
0.0224544
0.0314707
0.0321156
0.0297229
0.0304061
0.0246252
0.0251541
0.0233713
0.0239411
0.0351261
0.0345436
0.0336929
0.0330806
0.0272615
0.0268013
0.026263
0.0257696
0.0337447
0.0335603
0.0322384
0.0320345
0.0260333
0.0258428
0.0249586
0.0247493
0.0336172
0.033615
0.03209
0.032088
0.0258798
0.0258784
0.024785
0.0247837
0.033554
0.0337352
0.0320287
0.0322295
0.0258389
0.0260272
0.0247456
0.0249529
0.0345319
0.0351129
0.0330697
0.0336808
0.0267936
0.027253
0.0257625
0.0262552
0.0376095
0.0370777
0.0364275
0.0358713
0.0289751
0.0285698
0.0281612
0.0277307
0.0363498
0.0361954
0.03511
0.0349413
0.0278721
0.0277108
0.0270003
0.0268254
0.0362541
0.0362517
0.0349989
0.0349966
0.0277494
0.0277479
0.0268631
0.0268616
0.0361885
0.0363393
0.0349347
0.0351
0.0277065
0.0278654
0.0268213
0.0269939
0.0370649
0.0375949
0.0358591
0.0364138
0.0285615
0.0289657
0.0277227
0.0281525
0.0396367
0.0391464
0.0386744
0.0381645
0.0303593
0.0299957
0.0297043
0.0293211
0.0384741
0.0383427
0.0374659
0.0373232
0.0293523
0.0292129
0.0286522
0.0285024
0.0384029
0.0384003
0.0373824
0.0373799
0.0292528
0.0292512
0.0285415
0.0285399
0.0383352
0.0384628
0.0373161
0.037455
0.0292083
0.0293452
0.0284979
0.0286454
0.0391326
0.039621
0.0381511
0.0386595
0.0299868
0.0303491
0.0293125
0.0296948
0.0412694
0.0408128
0.0404972
0.0400245
0.0314614
0.0311311
0.0309417
0.0305957
0.0401847
0.0400714
0.0393753
0.039253
0.0305306
0.0304082
0.029975
0.0298443
0.0401334
0.0401306
0.0393138
0.0393111
0.0304495
0.0304478
0.0298848
0.0298831
0.0400635
0.0401728
0.0392454
0.0393638
0.0304033
0.0305231
0.0298396
0.0299677
0.0407982
0.0412528
0.0400103
0.0404812
0.0311217
0.0314507
0.0305865
0.0309316
0.0425643
0.0421345
0.0419539
0.0415115
0.032325
0.0320214
0.0319195
0.0316032
0.0415417
0.0414431
0.0409019
0.0407958
0.031455
0.0313462
0.0310207
0.0309052
0.0415068
0.0415039
0.0408584
0.0408556
0.031389
0.0313872
0.0309471
0.0309454
0.0414348
0.0415292
0.0407878
0.0408898
0.0313411
0.0314472
0.0309002
0.0310131
0.0421192
0.0425468
0.0414966
0.0419371
0.0320117
0.0323138
0.0315937
0.0319089
0.0435706
0.043162
0.043099
0.0426803
0.0329872
0.0327052
0.0326781
0.0323858
0.0425974
0.0425109
0.0421021
0.0420093
0.0321659
0.0320682
0.0318337
0.0317305
0.0425764
0.0425735
0.0420737
0.0420708
0.0321126
0.0321108
0.0317739
0.0317722
0.0425023
0.0425846
0.042001
0.0420896
0.032063
0.0321579
0.0317254
0.0318258
0.0431462
0.0435524
0.0426647
0.0430814
0.0326951
0.0329757
0.0323759
0.0326671
0.0443301
0.0439387
0.0439768
0.0435771
0.0334797
0.0332147
0.0332517
0.0329786
0.0433968
0.0433202
0.0430243
0.0429425
0.0326971
0.0326087
0.0324509
0.0323577
0.0433877
0.0433847
0.0430087
0.0430057
0.0326547
0.0326528
0.0324028
0.032401
0.0433115
0.0433835
0.0429339
0.0430114
0.0326033
0.0326889
0.0323525
0.0324428
0.0439224
0.0443114
0.043561
0.0439586
0.0332043
0.0334677
0.0329684
0.0332404
0.0448783
0.0445007
0.0446261
0.0442422
0.0338284
0.0335771
0.0336693
0.0334114
0.0439781
0.0439101
0.0437102
0.0436376
0.0330768
0.032996
0.0329031
0.0328184
0.0439795
0.0439763
0.0437058
0.0437027
0.0330437
0.0330418
0.0328651
0.0328632
0.0439011
0.0439645
0.0436288
0.0436968
0.0329905
0.0330684
0.032813
0.0328948
0.044484
0.0448591
0.0442257
0.0446073
0.0335664
0.0338161
0.0334009
0.0336576
0.045247
0.0448807
0.0450814
0.0447096
0.0340539
0.0338139
0.0339534
0.0337081
0.0443728
0.0443126
0.0441947
0.0441302
0.033328
0.0332537
0.0332157
0.0331381
0.0443843
0.0443811
0.0442002
0.044197
0.033303
0.0333011
0.0331865
0.0331846
0.0443035
0.044359
0.0441212
0.044181
0.0332481
0.0333194
0.0331326
0.0332072
0.0448637
0.0452274
0.0446928
0.0450622
0.033803
0.0340414
0.0336974
0.0339414
0.0454652
0.0451075
0.0453718
0.0450093
0.0341776
0.0339458
0.0341261
0.03389
0.0446109
0.0445553
0.0445073
0.044449
0.0334693
0.0333997
0.0334094
0.0333382
0.044628
0.0446248
0.0445211
0.0445179
0.0334507
0.0334487
0.0333886
0.0333867
0.044546
0.0445968
0.0444398
0.0444934
0.0333941
0.0334606
0.0333327
0.0334008
0.0450902
0.0454452
0.0449921
0.0453523
0.0339348
0.0341649
0.0338791
0.0341139
0.0455507
0.0452006
0.0455211
0.0451675
0.0342105
0.0339862
0.0342032
0.0339756
0.0447155
0.0446662
0.0446771
0.0446245
0.03352
0.033456
0.033505
0.0334378
0.0447411
0.0447378
0.0446976
0.0446944
0.0335087
0.0335068
0.033489
0.033487
0.0446568
0.0447012
0.0446152
0.0446631
0.0334503
0.0335111
0.0334321
0.0334963
0.045183
0.0455304
0.04515
0.0455013
0.0339744
0.0341971
0.0339646
0.0341911
0.0455225
0.0451792
0.0455477
0.0452007
0.0341675
0.0339488
0.0341965
0.0339751
0.0447037
0.0446586
0.0447204
0.0446728
0.0334901
0.0334297
0.0335127
0.0334503
0.0447347
0.0447314
0.0447479
0.0447446
0.0334837
0.0334817
0.0335036
0.0335016
0.0446491
0.0446892
0.0446633
0.0447061
0.0334239
0.0334809
0.0334446
0.0335037
0.0451612
0.0455017
0.0451829
0.0455274
0.033936
0.0341526
0.0339626
0.0341826
0.0454006
0.0450622
0.0454704
0.0451298
0.0340602
0.0338458
0.0341199
0.0339035
0.0445921
0.0445507
0.044657
0.0446133
0.033392
0.0333348
0.0334476
0.0333886
0.0446281
0.0446248
0.0446897
0.0446864
0.0333901
0.0333881
0.0334431
0.0334411
0.0445411
0.0445777
0.0446038
0.0446426
0.033329
0.0333832
0.0333829
0.0334387
0.0450444
0.04538
0.045112
0.04545
0.0338337
0.0340462
0.0338912
0.034106
0.0451928
0.0448582
0.0453049
0.0449679
0.0338964
0.0336844
0.0339839
0.0337707
0.0443939
0.0443555
0.0445006
0.0444602
0.0332349
0.03318
0.033319
0.0332627
0.0444344
0.044431
0.044538
0.0445347
0.0332366
0.0332346
0.0333185
0.0333165
0.0443459
0.0443794
0.0444507
0.0444862
0.0331742
0.0332261
0.033257
0.0333102
0.0448405
0.0451725
0.0449501
0.0452847
0.0336739
0.0338835
0.0337591
0.0339705
0.0449136
0.0445818
0.0450595
0.0447265
0.0336818
0.0334719
0.033794
0.0335829
0.04412
0.0440842
0.0442632
0.0442256
0.0330254
0.0329726
0.033135
0.0330808
0.0441644
0.0441611
0.0443049
0.0443015
0.0330305
0.0330285
0.0331379
0.0331359
0.0440747
0.0441056
0.0442161
0.0442489
0.0329669
0.0330168
0.0330751
0.0331263
0.0445643
0.0448935
0.0447089
0.0450396
0.0334618
0.0336702
0.0335729
0.0337825
0.0445678
0.0442384
0.0447466
0.0444155
0.0334242
0.0332157
0.0335567
0.0333476
0.0437799
0.0437462
0.0439552
0.0439199
0.03277
0.0327189
0.0329018
0.0328496
0.0438276
0.0438243
0.0440005
0.0439972
0.0327779
0.032776
0.0329079
0.0329059
0.0437366
0.0437655
0.0439105
0.043941
0.0327132
0.0327613
0.032844
0.0328932
0.0442208
0.0445477
0.044398
0.0447268
0.0332044
0.0334113
0.033337
0.0335451
0.0441668
0.0438388
0.044372
0.0440434
0.0331282
0.0329197
0.0332796
0.0330712
0.0433807
0.0433485
0.0435848
0.0435513
0.0324735
0.0324236
0.0326253
0.0325746
0.043431
0.0434277
0.043633
0.0436297
0.0324837
0.0324817
0.032634
0.0326321
0.0433389
0.0433663
0.0435418
0.0435705
0.0324179
0.0324648
0.0325689
0.0326167
0.0438213
0.0441465
0.0440259
0.044352
0.0329084
0.0331151
0.0330601
0.0332673
0.0437107
0.0433844
0.0439435
0.0436159
0.0327931
0.032585
0.0329641
0.0327554
0.0429278
0.0428965
0.0431583
0.043126
0.0321393
0.0320902
0.0323096
0.0322599
0.0429799
0.0429765
0.0432087
0.0432053
0.0321513
0.0321492
0.0323203
0.0323183
0.0428869
0.0429134
0.0431165
0.043144
0.0320844
0.0321305
0.0322542
0.0323009
0.0433669
0.0436907
0.0435984
0.0439237
0.032575
0.0327811
0.0327445
0.0329513
0.0432075
0.042882
0.0434629
0.0431372
0.0324266
0.0322182
0.0326127
0.0324046
0.042424
0.0423932
0.0426797
0.0426481
0.0317697
0.0317209
0.0319575
0.0319084
0.0424774
0.042474
0.0427316
0.0427282
0.0317827
0.0317807
0.0319697
0.0319677
0.0423836
0.0424096
0.0426386
0.0426654
0.0317151
0.0317609
0.0319026
0.0319489
0.0428646
0.0431875
0.0431198
0.0434433
0.032207
0.0324142
0.0323945
0.0326018
0.0426556
0.0423306
0.0429357
0.0426101
0.0320268
0.0318173
0.0322297
0.0320206
0.0418715
0.0418406
0.0421515
0.0421201
0.0313659
0.0313168
0.0315708
0.0315216
0.0419254
0.041922
0.0422043
0.0422009
0.0313795
0.0313775
0.0315837
0.0315817
0.041831
0.0418572
0.0421106
0.0421373
0.031311
0.031357
0.0315158
0.031562
0.0423132
0.0426357
0.0425927
0.042916
0.031806
0.0320135
0.0320089
0.0322166
0.042058
0.0417327
0.0423608
0.0420356
0.0315955
0.0313841
0.031814
0.0316036
0.0412705
0.0412392
0.0415747
0.0415431
0.0309283
0.0308786
0.0311501
0.0311004
0.0413245
0.0413211
0.0416278
0.0416245
0.030942
0.03094
0.0311633
0.0311613
0.0412296
0.0412562
0.0415336
0.0415605
0.0308728
0.0309196
0.0310947
0.0311413
0.0417155
0.0420384
0.0420183
0.0423414
0.0313732
0.0315829
0.0315926
0.0318017
0.0414127
0.0410869
0.0417396
0.0414138
0.0311311
0.0309175
0.0313665
0.0311539
0.0406216
0.0405893
0.0409498
0.0409175
0.030457
0.0304063
0.0306958
0.0306453
0.0406749
0.0406716
0.0410027
0.0409993
0.0304701
0.0304681
0.0307088
0.0307068
0.0405797
0.0406074
0.040908
0.0409357
0.0304005
0.0304483
0.0306395
0.0306871
0.0410698
0.0413934
0.0413967
0.0417205
0.0309067
0.0311186
0.0311431
0.0313544
0.0407197
0.0403931
0.0410706
0.0407442
0.0306329
0.030417
0.0308852
0.0306704
0.039924
0.0398899
0.0402769
0.0402431
0.0299511
0.0298989
0.0302073
0.0301556
0.0399756
0.0399722
0.0403286
0.0403252
0.0299631
0.0299611
0.0302195
0.0302175
0.0398804
0.0399099
0.0402337
0.0402629
0.0298932
0.0299424
0.0301499
0.0301987
0.0403763
0.0407007
0.0407274
0.0410518
0.0304063
0.0306206
0.0306597
0.0308732
0.0399769
0.039649
0.0403532
0.0400257
0.0301001
0.0298812
0.0303699
0.0301525
0.0391748
0.0391382
0.0395539
0.0395181
0.0294088
0.0293548
0.0296835
0.0296302
0.0392238
0.0392205
0.0396035
0.0396002
0.0294192
0.0294172
0.0296944
0.0296924
0.0391289
0.0391609
0.0395088
0.0395401
0.0293491
0.0294002
0.0296245
0.0296749
0.0396324
0.0399584
0.0400091
0.0403346
0.0298707
0.030088
0.030142
0.0303582
0.0391811
0.0388507
0.0395844
0.0392552
0.0295307
0.0293078
0.0298192
0.0295983
0.0383701
0.0383303
0.0387776
0.038739
0.0288277
0.0287713
0.0291222
0.0290668
0.0384155
0.0384122
0.0388241
0.0388208
0.0288359
0.0288339
0.0291312
0.0291292
0.0383211
0.0383564
0.0387298
0.038764
0.0287657
0.0288192
0.0290612
0.0291138
0.0388345
0.039163
0.0392389
0.0395663
0.0292975
0.0295189
0.029588
0.0298077
0.0383275
0.0379935
0.0387604
0.0384281
0.0289217
0.0286937
0.0292305
0.0290051
0.0375045
0.0374608
0.0379433
0.0379011
0.0282046
0.028145
0.0285206
0.0284625
0.0375454
0.0375422
0.0379858
0.0379825
0.0282094
0.0282075
0.0285269
0.0285249
0.0374517
0.0374911
0.0378921
0.0379299
0.0281395
0.0281963
0.028457
0.0285123
0.0379777
0.0383099
0.0384122
0.0387428
0.0286837
0.0289103
0.0289949
0.0292192
0.0374104
0.0370716
0.037876
0.0375396
0.0282693
0.0280351
0.0286004
0.0283694
0.0365718
0.0365231
0.0370452
0.0369986
0.0275348
0.027471
0.0278749
0.0278131
0.036607
0.0366039
0.0370826
0.0370794
0.0275353
0.0275334
0.0278773
0.0278754
0.0365142
0.0365587
0.0369897
0.0370321
0.0274656
0.0275267