/*--------------------------------*- C++ -*----------------------------------*\
  =========                 |
  \\      /  F ield         | OpenFOAM: The Open Source CFD Toolbox
   \\    /   O peration     | Website:  https://openfoam.org
    \\  /    A nd           | Version:  9
     \\/     M anipulation  |
\*---------------------------------------------------------------------------*/
FoamFile
{
    format      ascii;
    class       volScalarField;
    location    "2.3";
    object      p;
}
// * * * * * * * * * * * * * * * * * * * * * * * * * * * * * * * * * * * * * //

dimensions      [0 2 -2 0 0 0 0];

internalField   nonuniform List<scalar> 
36360
(
20.1452
20.0676
20.1167
20.0833
20.0925
20.105
20.0969
20.0985
20.0986
20.1007
20.0999
20.1007
20.0991
20.0991
20.0974
20.0986
20.1007
20.1007
20.1007
20.1007
20.0991
20.0991
20.0989
20.0989
20.1007
20.0986
20.1007
20.0999
20.0991
20.0991
20.0986
20.0974
20.0676
20.1452
20.0833
20.1167
20.105
20.0925
20.0985
20.0969
20.1389
20.083
20.1493
20.0741
20.0583
20.1416
20.0794
20.1217
20.0999
20.1011
20.0989
20.1009
20.1031
20.0986
20.101
20.0992
20.1011
20.1011
20.1007
20.1007
20.0984
20.0984
20.099
20.099
20.1011
20.0999
20.1009
20.0989
20.0986
20.1031
20.0992
20.101
20.083
20.1389
20.0741
20.1493
20.1416
20.0583
20.1217
20.0794
20.1157
20.0967
20.1269
20.0908
20.0138
20.1777
20.0356
20.1608
20.1063
20.1006
20.1024
20.1008
20.1127
20.0983
20.1072
20.0982
20.0996
20.0996
20.1007
20.1007
20.0968
20.0968
20.0976
20.0976
20.1006
20.1063
20.1008
20.1024
20.0983
20.1127
20.0982
20.1072
20.0967
20.1157
20.0908
20.1269
20.1777
20.0139
20.1608
20.0356
20.0957
20.1035
20.1052
20.1008
19.9755
20.2034
19.9937
20.1918
20.1149
20.1022
20.1105
20.1011
20.1253
20.1002
20.1189
20.099
20.0978
20.0978
20.0986
20.0986
20.0958
20.0958
20.0962
20.0962
20.1022
20.1149
20.1011
20.1105
20.1002
20.1253
20.099
20.1189
20.1035
20.0957
20.1008
20.1052
20.2034
19.9755
20.1918
19.9938
20.0793
20.1058
20.087
20.1051
19.9444
20.2204
19.9591
20.2128
20.1233
20.1056
20.1192
20.1037
20.1371
20.1038
20.1314
20.1019
20.0975
20.0975
20.0975
20.0975
20.096
20.096
20.0957
20.0957
20.1056
20.1233
20.1037
20.1192
20.1038
20.137
20.1019
20.1314
20.1058
20.0793
20.1051
20.087
20.2203
19.9444
20.2128
19.9591
20.066
20.1056
20.0723
20.1059
19.9196
20.2313
19.9313
20.2264
20.1303
20.1095
20.1271
20.1075
20.1468
20.1081
20.1422
20.106
20.0987
20.0987
20.098
20.098
20.0973
20.0973
20.0965
20.0965
20.1095
20.1303
20.1075
20.1271
20.1081
20.1468
20.1059
20.1422
20.1056
20.066
20.1059
20.0723
20.2313
19.9196
20.2264
19.9313
20.0552
20.1041
20.0603
20.1049
19.8999
20.2383
19.9092
20.2352
20.1357
20.1135
20.1332
20.1115
20.1544
20.1125
20.1509
20.1103
20.1008
20.1008
20.0997
20.0997
20.0994
20.0994
20.0983
20.0983
20.1135
20.1357
20.1115
20.1332
20.1125
20.1544
20.1103
20.1509
20.1041
20.0552
20.1049
20.0603
20.2382
19.8999
20.2351
19.9092
20.0463
20.1021
20.0505
20.1031
19.8842
20.2427
19.8916
20.2407
20.1397
20.1171
20.1378
20.1154
20.1601
20.1164
20.1574
20.1145
20.1033
20.1033
20.102
20.102
20.1019
20.1019
20.1006
20.1006
20.1171
20.1397
20.1154
20.1378
20.1164
20.1601
20.1145
20.1574
20.1021
20.0463
20.1031
20.0505
20.2426
19.8842
20.2407
19.8916
20.0391
20.0999
20.0425
20.101
19.8716
20.2453
19.8775
20.2442
20.1425
20.1203
20.1412
20.1188
20.1642
20.1199
20.1623
20.1182
20.1059
20.1059
20.1046
20.1046
20.1044
20.1044
20.1032
20.1032
20.1203
20.1425
20.1188
20.1412
20.1199
20.1642
20.1182
20.1623
20.0999
20.0391
20.101
20.0425
20.2453
19.8717
20.2442
19.8776
20.0331
20.0977
20.0359
20.0988
19.8616
20.2469
19.8664
20.2462
20.1445
20.123
20.1436
20.1217
20.1672
20.1227
20.1659
20.1214
20.1083
20.1083
20.1071
20.1071
20.1068
20.1068
20.1057
20.1057
20.123
20.1445
20.1217
20.1436
20.1227
20.1672
20.1214
20.1658
20.0977
20.0331
20.0988
20.036
20.2468
19.8617
20.2462
19.8664
20.0281
20.0957
20.0305
20.0967
19.8537
20.2476
19.8574
20.2473
20.1459
20.1251
20.1453
20.1241
20.1693
20.125
20.1684
20.1239
20.1105
20.1105
20.1094
20.1094
20.109
20.109
20.1079
20.1079
20.1251
20.1459
20.1241
20.1453
20.125
20.1693
20.1239
20.1683
20.0957
20.0282
20.0967
20.0305
20.2475
19.8537
20.2473
19.8575
20.024
20.0938
20.026
20.0948
19.8473
20.2476
19.8503
20.2477
20.1468
20.1267
20.1464
20.1259
20.1707
20.1267
20.1701
20.1259
20.1123
20.1123
20.1114
20.1114
20.1107
20.1107
20.1099
20.1099
20.1267
20.1468
20.1259
20.1464
20.1267
20.1706
20.1259
20.17
20.0939
20.024
20.0948
20.026
20.2476
19.8474
20.2476
19.8504
20.0205
20.0922
20.0222
20.093
19.8423
20.2473
19.8447
20.2475
20.1473
20.1279
20.1471
20.1273
20.1714
20.128
20.1711
20.1274
20.1138
20.1138
20.1131
20.1131
20.1121
20.1121
20.1115
20.1115
20.1279
20.1473
20.1273
20.1471
20.128
20.1714
20.1274
20.1711
20.0922
20.0205
20.093
20.0222
20.2472
19.8424
20.2475
19.8447
20.0176
20.0907
20.019
20.0914
19.8384
20.2466
19.8402
20.2469
20.1474
20.1288
20.1474
20.1284
20.1717
20.1288
20.1716
20.1284
20.1149
20.1149
20.1144
20.1144
20.1131
20.1131
20.1127
20.1127
20.1287
20.1474
20.1284
20.1474
20.1288
20.1717
20.1284
20.1716
20.0907
20.0176
20.0914
20.019
20.2465
19.8385
20.2469
19.8403
20.0151
20.0893
20.0163
20.09
19.8354
20.2456
19.8368
20.2461
20.1473
20.1292
20.1474
20.129
20.1716
20.1292
20.1717
20.129
20.1156
20.1156
20.1153
20.1153
20.1138
20.1138
20.1135
20.1135
20.1292
20.1473
20.129
20.1474
20.1292
20.1716
20.129
20.1717
20.0893
20.0151
20.09
20.0163
20.2455
19.8355
20.2461
19.8369
20.013
20.0881
20.014
20.0887
19.8332
20.2443
19.8342
20.245
20.147
20.1294
20.1472
20.1294
20.1711
20.1292
20.1714
20.1292
20.116
20.116
20.1158
20.1158
20.1141
20.1141
20.114
20.114
20.1294
20.147
20.1294
20.1472
20.1292
20.1711
20.1292
20.1714
20.0881
20.013
20.0887
20.014
20.2443
19.8332
20.2449
19.8343
20.0112
20.0871
20.0121
20.0876
19.8316
20.2428
19.8323
20.2436
20.1466
20.1293
20.1468
20.1294
20.1704
20.129
20.1708
20.1291
20.1161
20.1161
20.1161
20.1161
20.114
20.114
20.1141
20.1141
20.1293
20.1466
20.1294
20.1468
20.1289
20.1704
20.1291
20.1708
20.0871
20.0112
20.0876
20.0121
20.2428
19.8316
20.2436
19.8324
20.0096
20.0862
20.0104
20.0866
19.8307
20.2412
19.8311
20.242
20.146
20.129
20.1463
20.1292
20.1695
20.1284
20.17
20.1287
20.116
20.116
20.1161
20.1161
20.1137
20.1137
20.1139
20.1139
20.129
20.146
20.1292
20.1463
20.1284
20.1694
20.1287
20.1699
20.0861
20.0098
20.0866
20.0105
20.2411
19.8307
20.242
19.8311
20.0084
20.0854
20.009
20.0858
19.83
20.2394
19.8303
20.2403
20.1454
20.1285
20.1458
20.1288
20.1683
20.1277
20.1689
20.1281
20.1157
20.1157
20.1159
20.1159
20.1132
20.1132
20.1135
20.1135
20.1285
20.1454
20.1288
20.1457
20.1277
20.1683
20.1281
20.1689
20.0854
20.0084
20.0858
20.009
20.2394
19.8301
20.2402
19.8303
20.0074
20.0847
20.0079
20.085
19.8298
20.2376
19.8298
20.2385
20.1448
20.1279
20.1451
20.1282
20.1671
20.1267
20.1677
20.1272
20.1152
20.1152
20.1155
20.1155
20.1124
20.1124
20.1128
20.1128
20.1279
20.1448
20.1282
20.1451
20.1267
20.167
20.1272
20.1677
20.0848
20.0073
20.0851
20.0078
20.2375
19.8298
20.2385
19.8299
20.0065
20.0842
20.0068
20.0845
19.83
20.2358
19.8298
20.2367
20.1441
20.1271
20.1445
20.1275
20.1657
20.1256
20.1664
20.1262
20.1146
20.1146
20.1149
20.1149
20.1115
20.1115
20.112
20.112
20.1271
20.1441
20.1275
20.1445
20.1256
20.1656
20.1262
20.1664
20.0843
20.0065
20.0845
20.0069
20.2357
19.8299
20.2366
19.8298
20.0061
20.0837
20.0063
20.0839
19.8306
20.2339
19.8302
20.2348
20.1431
20.1263
20.1436
20.1267
20.1641
20.1244
20.1649
20.1251
20.1139
20.1139
20.1143
20.1143
20.1105
20.1105
20.111
20.111
20.1263
20.1431
20.1267
20.1436
20.1244
20.1641
20.125
20.1649
20.0837
20.0061
20.0839
20.0063
20.2338
19.8306
20.2347
19.8302
20.0057
20.0834
20.0058
20.0836
19.8315
20.232
19.831
20.2329
20.142
20.1255
20.1425
20.1259
20.1624
20.1232
20.1633
20.1238
20.1132
20.1132
20.1136
20.1136
20.1094
20.1094
20.11
20.11
20.1255
20.142
20.1259
20.1425
20.1232
20.1624
20.1238
20.1633
20.0835
20.0056
20.0836
20.0058
20.232
19.8313
20.2329
19.8309
20.0056
20.0833
20.0056
20.0833
19.8326
20.2302
19.832
20.2311
20.141
20.1246
20.1415
20.1251
20.1607
20.1219
20.1616
20.1225
20.1125
20.1125
20.1129
20.1129
20.1083
20.1083
20.1089
20.1089
20.1246
20.141
20.1251
20.1415
20.1219
20.1607
20.1225
20.1616
20.0833
20.0057
20.0834
20.0056
20.2302
19.8326
20.2311
19.8319
20.0058
20.0834
20.0057
20.0833
19.834
20.2284
19.8333
20.2293
20.1402
20.1239
20.1406
20.1243
20.1591
20.1206
20.1599
20.1212
20.1119
20.1119
20.1122
20.1122
20.1072
20.1072
20.1078
20.1078
20.1239
20.1402
20.1242
20.1406
20.1206
20.1591
20.1212
20.1599
20.0835
20.0058
20.0833
20.0057
20.2284
19.834
20.2293
19.8333
20.0063
20.0838
20.006
20.0836
19.8358
20.2268
19.8349
20.2276
20.1395
20.1232
20.1398
20.1235
20.1576
20.1194
20.1583
20.12
20.1114
20.1114
20.1116
20.1116
20.1062
20.1062
20.1067
20.1067
20.1232
20.1395
20.1235
20.1398
20.1194
20.1576
20.12
20.1583
20.0838
20.0064
20.0836
20.006
20.2268
19.8359
20.2276
19.8349
20.0072
20.0843
20.0067
20.084
19.8382
20.2252
19.837
20.226
20.139
20.1227
20.1393
20.1229
20.1561
20.1183
20.1568
20.1188
20.111
20.111
20.1111
20.1111
20.1053
20.1053
20.1057
20.1057
20.1227
20.139
20.1229
20.1392
20.1183
20.1561
20.1188
20.1568
20.0843
20.0072
20.084
20.0067
20.2251
19.8383
20.2259
19.837
20.0084
20.0852
20.0078
20.0847
19.8411
20.2237
19.8396
20.2244
20.1387
20.1223
20.1388
20.1225
20.1547
20.1173
20.1554
20.1178
20.1108
20.1108
20.1108
20.1108
20.1045
20.1045
20.1049
20.1049
20.1223
20.1387
20.1225
20.1388
20.1173
20.1547
20.1177
20.1554
20.0852
20.0085
20.0847
20.0078
20.2236
19.8412
20.2244
19.8397
20.0101
20.0863
20.0092
20.0857
19.8446
20.2223
19.8428
20.2229
20.1385
20.1221
20.1386
20.1222
20.1535
20.1165
20.1541
20.1169
20.1108
20.1108
20.1108
20.1108
20.104
20.104
20.1042
20.1042
20.1221
20.1385
20.1222
20.1386
20.1165
20.1535
20.1169
20.1541
20.0863
20.0101
20.0857
20.0092
20.2223
19.8446
20.2229
19.8429
20.0122
20.0877
20.0111
20.087
19.8486
20.2211
19.8465
20.2216
20.1386
20.1222
20.1386
20.1222
20.1524
20.1159
20.1529
20.1162
20.1111
20.1111
20.1109
20.1109
20.1038
20.1038
20.1039
20.1039
20.1222
20.1386
20.1221
20.1385
20.1159
20.1524
20.1162
20.1529
20.0877
20.0122
20.087
20.0111
20.221
19.8487
20.2216
19.8466
20.0147
20.0894
20.0134
20.0886
19.8533
20.22
19.8509
20.2205
20.1389
20.1226
20.1387
20.1224
20.1515
20.1156
20.152
20.1157
20.1118
20.1118
20.1114
20.1114
20.1039
20.1039
20.1038
20.1038
20.1225
20.1389
20.1223
20.1387
20.1156
20.1515
20.1157
20.1519
20.0894
20.0148
20.0886
20.0134
20.22
19.8533
20.2205
19.8509
20.0178
20.0914
20.0162
20.0904
19.8586
20.2191
19.8559
20.2195
20.1393
20.1232
20.1391
20.1228
20.1509
20.1157
20.1512
20.1156
20.1128
20.1128
20.1122
20.1122
20.1045
20.1045
20.1041
20.1041
20.1232
20.1393
20.1228
20.1391
20.1157
20.1508
20.1156
20.1512
20.0914
20.0178
20.0904
20.0162
20.2191
19.8587
20.2195
19.8559
20.0213
20.0937
20.0195
20.0925
19.8647
20.2184
19.8616
20.2187
20.1399
20.124
20.1396
20.1236
20.1503
20.116
20.1506
20.1158
20.1141
20.1141
20.1134
20.1134
20.1054
20.1054
20.1049
20.1049
20.124
20.1399
20.1236
20.1396
20.116
20.1503
20.1158
20.1506
20.0937
20.0213
20.0925
20.0195
20.2183
19.8648
20.2187
19.8616
20.0254
20.0961
20.0233
20.0949
19.8717
20.2177
19.8681
20.218
20.1407
20.1252
20.1403
20.1246
20.15
20.1168
20.1501
20.1164
20.1159
20.1159
20.115
20.115
20.1068
20.1068
20.1061
20.1061
20.1252
20.1407
20.1246
20.1403
20.1168
20.15
20.1164
20.1501
20.0961
20.0254
20.0949
20.0233
20.2176
19.8717
20.218
19.8681
20.0301
20.0988
20.0277
20.0974
19.8796
20.217
19.8755
20.2173
20.1415
20.1267
20.1411
20.1259
20.1498
20.1179
20.1499
20.1173
20.118
20.118
20.1169
20.1169
20.1087
20.1087
20.1077
20.1077
20.1267
20.1415
20.1259
20.1411
20.1179
20.1498
20.1173
20.1499
20.0988
20.0301
20.0974
20.0277
20.2169
19.8796
20.2173
19.8755
20.0353
20.1015
20.0326
20.1001
19.8887
20.2161
19.884
20.2166
20.1425
20.1285
20.142
20.1276
20.1497
20.1195
20.1498
20.1187
20.1205
20.1205
20.1192
20.1192
20.1111
20.1111
20.1099
20.1099
20.1285
20.1425
20.1275
20.142
20.1195
20.1497
20.1187
20.1498
20.1015
20.0353
20.1001
20.0326
20.216
19.8887
20.2165
19.884
20.0408
20.1045
20.038
20.103
19.8993
20.2146
19.8938
20.2154
20.1434
20.1305
20.1429
20.1294
20.1497
20.1214
20.1497
20.1204
20.1234
20.1234
20.1219
20.1219
20.114
20.114
20.1125
20.1125
20.1305
20.1434
20.1294
20.1429
20.1214
20.1496
20.1204
20.1497
20.1045
20.0408
20.103
20.038
20.2146
19.8994
20.2154
19.8938
20.0452
20.1087
20.0435
20.1062
19.9123
20.2117
19.9055
20.2134
20.1444
20.1329
20.1439
20.1316
20.1495
20.1238
20.1496
20.1226
20.1267
20.1267
20.125
20.125
20.1173
20.1173
20.1156
20.1156
20.1329
20.1444
20.1316
20.1439
20.1238
20.1495
20.1226
20.1496
20.1087
20.0452
20.1062
20.0435
20.2117
19.9123
20.2134
19.9055
20.0489
20.1129
20.0457
20.1123
19.9282
20.206
19.9198
20.2093
20.1462
20.1359
20.1453
20.1343
20.1496
20.1268
20.1495
20.1252
20.1305
20.1304
20.1285
20.1285
20.1211
20.1211
20.1191
20.1191
20.1359
20.1462
20.1343
20.1452
20.1268
20.1496
20.1252
20.1494
20.1129
20.0489
20.1123
20.0457
20.206
19.9282
20.2093
19.9198
20.187
20.0435
20.1463
20.0658
20.1733
20.0476
20.1339
20.0705
20.0886
20.0999
20.096
20.1006
20.0921
20.0995
20.0966
20.0992
20.1005
20.1005
20.1004
20.1004
20.0999
20.0999
20.0995
20.0995
20.0999
20.0886
20.1006
20.096
20.0995
20.0921
20.0992
20.0966
20.0435
20.187
20.0658
20.1463
20.0476
20.1733
20.0705
20.1339
20.1885
20.0613
20.1912
20.0525
20.1796
20.058
20.1821
20.0518
20.0807
20.0959
20.0834
20.0983
20.0863
20.0985
20.0886
20.0994
20.1003
20.1003
20.1006
20.1006
20.1003
20.1003
20.1005
20.1005
20.0959
20.0807
20.0983
20.0834
20.0985
20.0863
20.0994
20.0886
20.0613
20.1885
20.0525
20.1912
20.058
20.1796
20.0518
20.1821
20.1832
20.0705
20.1856
20.0672
20.1712
20.0653
20.1754
20.0627
20.0805
20.0931
20.0802
20.0942
20.0872
20.0972
20.0861
20.0976
20.0984
20.0984
20.0995
20.0995
20.0991
20.0991
20.0999
20.0999
20.0932
20.0805
20.0942
20.0802
20.0972
20.0872
20.0976
20.0861
20.0705
20.1831
20.0672
20.1856
20.0653
20.1712
20.0627
20.1754
20.1796
20.0718
20.1812
20.0718
20.1637
20.0658
20.1673
20.0662
20.0822
20.0927
20.0813
20.0927
20.0918
20.0978
20.0894
20.0973
20.0965
20.0965
20.0974
20.0974
20.0977
20.0977
20.0983
20.0983
20.0927
20.0823
20.0927
20.0813
20.0978
20.0918
20.0973
20.0894
20.0718
20.1796
20.0718
20.1812
20.0658
20.1637
20.0662
20.1673
20.1772
20.0696
20.1783
20.071
20.1577
20.0629
20.1606
20.0646
20.0837
20.0937
20.0831
20.0931
20.0958
20.0999
20.094
20.0987
20.0959
20.0959
20.0961
20.0961
20.0974
20.0974
20.0973
20.0973
20.0937
20.0837
20.0931
20.0831
20.0999
20.0958
20.0987
20.094
20.0696
20.1772
20.071
20.1783
20.063
20.1577
20.0646
20.1605
20.1755
20.0661
20.1763
20.0679
20.1529
20.0588
20.1552
20.061
20.0843
20.0954
20.0841
20.0946
20.0987
20.1026
20.0974
20.1012
20.0968
20.0968
20.0962
20.0962
20.0986
20.0986
20.0978
20.0978
20.0954
20.0843
20.0946
20.0841
20.1026
20.0987
20.1012
20.0974
20.0661
20.1754
20.068
20.1763
20.0588
20.1528
20.061
20.1551
20.174
20.0624
20.1747
20.0643
20.1489
20.0545
20.1508
20.0566
20.0844
20.0972
20.0844
20.0963
20.1005
20.1055
20.0998
20.1041
20.0985
20.0985
20.0975
20.0975
20.1006
20.1006
20.0995
20.0995
20.0972
20.0844
20.0963
20.0844
20.1055
20.1005
20.1041
20.0998
20.0624
20.174
20.0643
20.1747
20.0545
20.1489
20.0566
20.1508
20.1727
20.0587
20.1733
20.0605
20.1455
20.0504
20.1471
20.0524
20.0841
20.099
20.0843
20.0981
20.1014
20.1083
20.101
20.107
20.1007
20.1007
20.0996
20.0996
20.103
20.103
20.1018
20.1018
20.099
20.0841
20.0981
20.0843
20.1083
20.1014
20.107
20.101
20.0588
20.1726
20.0605
20.1733
20.0504
20.1455
20.0524
20.1471
20.1714
20.0554
20.172
20.057
20.1426
20.0467
20.144
20.0485
20.0836
20.1007
20.0838
20.0999
20.1017
20.1109
20.1016
20.1096
20.103
20.103
20.1018
20.1018
20.1055
20.1055
20.1043
20.1043
20.1007
20.0836
20.0999
20.0838
20.1109
20.1017
20.1096
20.1016
20.0554
20.1714
20.057
20.172
20.0467
20.1426
20.0485
20.144
20.1702
20.0524
20.1708
20.0539
20.1401
20.0434
20.1414
20.045
20.083
20.1021
20.0833
20.1014
20.1017
20.1132
20.1018
20.1121
20.1052
20.1052
20.1041
20.1041
20.1079
20.1079
20.1067
20.1067
20.1021
20.083
20.1014
20.0833
20.1132
20.1017
20.1121
20.1018
20.0524
20.1702
20.0539
20.1708
20.0434
20.1401
20.045
20.1413
20.169
20.0498
20.1696
20.0511
20.1379
20.0404
20.139
20.0418
20.0824
20.1032
20.0827
20.1027
20.1015
20.115
20.1016
20.1142
20.1072
20.1072
20.1062
20.1062
20.1101
20.1101
20.109
20.109
20.1032
20.0824
20.1027
20.0827
20.115
20.1015
20.1142
20.1016
20.0498
20.169
20.0511
20.1696
20.0405
20.1379
20.0419
20.139
20.1679
20.0475
20.1684
20.0486
20.136
20.0379
20.1369
20.0391
20.0818
20.1042
20.0821
20.1037
20.1012
20.1165
20.1014
20.1158
20.1089
20.1089
20.1081
20.1081
20.112
20.112
20.1111
20.1111
20.1042
20.0818
20.1037
20.0821
20.1165
20.1012
20.1158
20.1014
20.0475
20.1678
20.0486
20.1684
20.0379
20.1359
20.0391
20.1369
20.1667
20.0455
20.1673
20.0465
20.1342
20.0357
20.135
20.0368
20.0812
20.105
20.0815
20.1046
20.1008
20.1175
20.101
20.117
20.1104
20.1104
20.1097
20.1097
20.1135
20.1135
20.1128
20.1128
20.105
20.0812
20.1046
20.0815
20.1175
20.1008
20.117
20.101
20.0455
20.1667
20.0465
20.1672
20.0358
20.1341
20.0368
20.135
20.1655
20.0438
20.1661
20.0446
20.1325
20.0339
20.1333
20.0348
20.0807
20.1056
20.081
20.1053
20.1003
20.1183
20.1005
20.118
20.1115
20.1115
20.111
20.111
20.1146
20.1146
20.1141
20.1141
20.1056
20.0807
20.1054
20.081
20.1183
20.1003
20.118
20.1005
20.0438
20.1655
20.0446
20.1661
20.0339
20.1325
20.0348
20.1333
20.1644
20.0424
20.165
20.043
20.131
20.0323
20.1317
20.0331
20.0803
20.1061
20.0805
20.1059
20.0998
20.1188
20.1
20.1186
20.1124
20.1124
20.112
20.112
20.1155
20.1155
20.1151
20.1151
20.1061
20.0803
20.1059
20.0805
20.1188
20.0998
20.1186
20.1
20.0424
20.1643
20.0431
20.1649
20.0323
20.131
20.0331
20.1317
20.1632
20.0412
20.1638
20.0417
20.1296
20.031
20.1303
20.0316
20.0799
20.1063
20.0801
20.1062
20.0992
20.1191
20.0995
20.119
20.113
20.113
20.1127
20.1127
20.1161
20.1161
20.1158
20.1158
20.1064
20.0799
20.1062
20.0801
20.1191
20.0992
20.119
20.0995
20.0412
20.1632
20.0418
20.1638
20.031
20.1295
20.0317
20.1302
20.1622
20.0401
20.1627
20.0406
20.1283
20.0299
20.1289
20.0304
20.0795
20.1065
20.0797
20.1064
20.0986
20.1192
20.0989
20.1192
20.1134
20.1134
20.1132
20.1132
20.1164
20.1164
20.1162
20.1162
20.1065
20.0795
20.1065
20.0797
20.1192
20.0986
20.1192
20.0989
20.0401
20.1622
20.0407
20.1626
20.03
20.1282
20.0305
20.1289
20.1611
20.0393
20.1617
20.0396
20.127
20.029
20.1277
20.0294
20.0792
20.1066
20.0793
20.1066
20.098
20.1192
20.0983
20.1192
20.1137
20.1137
20.1136
20.1136
20.1165
20.1165
20.1165
20.1164
20.1066
20.0792
20.1066
20.0793
20.1192
20.0979
20.1192
20.0983
20.0393
20.161
20.0396
20.1616
20.0289
20.1273
20.0294
20.1278
20.1602
20.0387
20.1606
20.039
20.1259
20.0284
20.1265
20.0287
20.079
20.1067
20.0791
20.1067
20.0973
20.119
20.0976
20.1191
20.1138
20.1138
20.1138
20.1138
20.1164
20.1164
20.1165
20.1165
20.1067
20.079
20.1067
20.0791
20.119
20.0973
20.1191
20.0976
20.0387
20.1601
20.039
20.1605
20.0284
20.1259
20.0286
20.1266
20.159
20.0384
20.1596
20.0385
20.1249
20.028
20.1254
20.0282
20.079
20.1067
20.079
20.1067
20.0965
20.1188
20.0969
20.1189
20.1139
20.1139
20.1139
20.1139
20.1163
20.1163
20.1164
20.1164
20.1067
20.079
20.1067
20.079
20.1188
20.0965
20.1189
20.0969
20.0384
20.159
20.0385
20.1596
20.028
20.1248
20.0282
20.1254
20.1584
20.0381
20.1587
20.0382
20.1242
20.0275
20.1246
20.0277
20.0791
20.1068
20.079
20.1067
20.0957
20.1185
20.0961
20.1186
20.1139
20.1139
20.1139
20.1139
20.116
20.116
20.1162
20.1162
20.1068
20.0791
20.1068
20.079
20.1185
20.0958
20.1186
20.0961
20.0382
20.1584
20.0383
20.1586
20.0277
20.124
20.0278
20.1244
20.1573
20.0383
20.1579
20.0381
20.1233
20.0276
20.1238
20.0275
20.0796
20.1069
20.0793
20.1068
20.0955
20.1182
20.0956
20.1183
20.1138
20.1138
20.1139
20.1139
20.1157
20.1157
20.1158
20.1158
20.1069
20.0796
20.1068
20.0793
20.1181
20.0955
20.1183
20.0956
20.0383
20.1573
20.0381
20.1579
20.0275
20.1234
20.0276
20.1237
20.1569
20.0384
20.157
20.0384
20.1227
20.0278
20.1229
20.0277
20.0797
20.1069
20.0798
20.1069
20.0963
20.1178
20.0958
20.118
20.1138
20.1138
20.1138
20.1138
20.1153
20.1153
20.1155
20.1155
20.1069
20.0797
20.1069
20.0798
20.1178
20.0963
20.118
20.0958
20.0383
20.157
20.0383
20.157
20.0279
20.1225
20.0277
20.123
20.1563
20.0388
20.1567
20.0385
20.1222
20.0282
20.1225
20.0279
20.08
20.1071
20.0798
20.107
20.097
20.1176
20.0967
20.1177
20.1138
20.1138
20.1138
20.1138
20.115
20.115
20.1151
20.1151
20.1071
20.08
20.107
20.0798
20.1176
20.097
20.1177
20.0967
20.0388
20.1563
20.0385
20.1567
20.0281
20.1223
20.0279
20.1224
20.1564
20.0394
20.1562
20.0392
20.1221
20.0289
20.1221
20.0285
20.0806
20.1074
20.0803
20.1072
20.0977
20.1174
20.0974
20.1175
20.114
20.114
20.1139
20.1139
20.1148
20.1148
20.1149
20.1149
20.1074
20.0806
20.1072
20.0803
20.1174
20.0977
20.1175
20.0974
20.0394
20.1564
20.0392
20.1562
20.029
20.1219
20.0286
20.122
20.1563
20.0403
20.1564
20.0398
20.122
20.0299
20.122
20.0293
20.0814
20.1079
20.0809
20.1076
20.0984
20.1174
20.098
20.1174
20.1143
20.1143
20.1141
20.1141
20.1147
20.1147
20.1147
20.1147
20.1079
20.0814
20.1076
20.0809
20.1174
20.0984
20.1174
20.098
20.0403
20.1563
20.0398
20.1564
20.0298
20.1221
20.0293
20.122
20.1565
20.0418
20.1563
20.0409
20.1223
20.0312
20.1221
20.0305
20.0825
20.1086
20.082
20.1082
20.0992
20.1176
20.0988
20.1175
20.1147
20.1147
20.1145
20.1145
20.1148
20.1148
20.1147
20.1147
20.1086
20.0826
20.1082
20.082
20.1176
20.0992
20.1175
20.0988
20.0418
20.1564
20.0409
20.1563
20.0312
20.1222
20.0305
20.1221
20.1569
20.0435
20.1567
20.0426
20.1228
20.0327
20.1225
20.0319
20.0839
20.1094
20.0832
20.109
20.1002
20.1179
20.0997
20.1177
20.1154
20.1154
20.115
20.115
20.1151
20.1151
20.1149
20.1149
20.1094
20.0839
20.109
20.0832
20.1179
20.1002
20.1177
20.0997
20.0435
20.1569
20.0426
20.1566
20.0327
20.1228
20.0319
20.1225
20.1576
20.0456
20.1573
20.0445
20.1237
20.0345
20.1232
20.0336
20.0855
20.1105
20.0847
20.1099
20.1014
20.1184
20.1008
20.1181
20.1162
20.1162
20.1158
20.1158
20.1156
20.1156
20.1153
20.1153
20.1105
20.0855
20.1099
20.0847
20.1184
20.1014
20.1181
20.1008
20.0456
20.1576
20.0445
20.1572
20.0345
20.1237
20.0336
20.1232
20.1586
20.048
20.1581
20.0467
20.1249
20.0366
20.1243
20.0355
20.0873
20.1118
20.0864
20.1111
20.1028
20.1192
20.1021
20.1188
20.1173
20.1173
20.1168
20.1168
20.1164
20.1164
20.1159
20.1159
20.1118
20.0873
20.1111
20.0864
20.1192
20.1028
20.1188
20.1021
20.048
20.1585
20.0467
20.158
20.0366
20.1248
20.0355
20.1242
20.1597
20.0509
20.1591
20.0493
20.1263
20.0387
20.1256
20.0377
20.0893
20.1133
20.0883
20.1125
20.1044
20.1202
20.1035
20.1197
20.1187
20.1187
20.118
20.118
20.1174
20.1174
20.1169
20.1169
20.1133
20.0893
20.1125
20.0883
20.1202
20.1044
20.1197
20.1035
20.0509
20.1596
20.0493
20.1591
20.0388
20.1263
20.0377
20.1255
20.161
20.0542
20.1603
20.0527
20.1281
20.0411
20.1272
20.0398
20.0916
20.115
20.0905
20.1141
20.1061
20.1214
20.1052
20.1208
20.1203
20.1203
20.1195
20.1195
20.1188
20.1188
20.1181
20.1181
20.115
20.0916
20.1141
20.0905
20.1214
20.1061
20.1208
20.1052
20.0542
20.161
20.0527
20.1603
20.0411
20.1281
20.0398
20.1272
20.1625
20.0562
20.1617
20.0552
20.1302
20.0448
20.1291
20.043
20.094
20.117
20.0928
20.116
20.1081
20.1229
20.1071
20.1222
20.1222
20.1222
20.1212
20.1212
20.1205
20.1205
20.1196
20.1196
20.117
20.094
20.116
20.0928
20.1229
20.1081
20.1222
20.1071
20.0562
20.1624
20.0552
20.1617
20.0448
20.1301
20.043
20.1291
20.164
20.0589
20.1632
20.0575
20.1324
20.0485
20.1313
20.0467
20.0966
20.1192
20.0953
20.1181
20.1102
20.1246
20.1091
20.1238
20.1243
20.1243
20.1232
20.1232
20.1224
20.1224
20.1214
20.1214
20.1192
20.0966
20.1181
20.0953
20.1246
20.1102
20.1237
20.1091
20.0589
20.1639
20.0575
20.1632
20.0485
20.1324
20.0467
20.1312
20.1653
20.062
20.1647
20.0604
20.1348
20.0523
20.1336
20.0504
20.0994
20.1216
20.098
20.1204
20.1125
20.1266
20.1113
20.1256
20.1267
20.1267
20.1254
20.1254
20.1247
20.1247
20.1235
20.1235
20.1216
20.0994
20.1204
20.098
20.1266
20.1125
20.1256
20.1113
20.062
20.1652
20.0604
20.1646
20.0523
20.1348
20.0504
20.1336
20.166
20.0656
20.1658
20.0637
20.137
20.0564
20.136
20.0543
20.1024
20.1241
20.1009
20.1228
20.1148
20.1287
20.1136
20.1276
20.1293
20.1293
20.1279
20.1279
20.1272
20.1272
20.1259
20.1259
20.1241
20.1024
20.1228
20.1009
20.1287
20.1148
20.1276
20.1136
20.0656
20.166
20.0637
20.1657
20.0564
20.137
20.0543
20.1359
20.1654
20.0704
20.166
20.0678
20.1386
20.0611
20.138
20.0586
20.1057
20.1267
20.104
20.1254
20.1173
20.131
20.1161
20.1298
20.1321
20.1321
20.1307
20.1307
20.13
20.13
20.1286
20.1286
20.1267
20.1057
20.1254
20.104
20.131
20.1173
20.1298
20.1161
20.0704
20.1653
20.0678
20.1659
20.0611
20.1386
20.0586
20.1379
20.1594
20.0798
20.1636
20.074
20.1366
20.069
20.1385
20.0643
20.1091
20.1293
20.1073
20.128
20.1198
20.1335
20.1185
20.1322
20.1354
20.1354
20.1337
20.1337
20.1332
20.1332
20.1316
20.1316
20.1293
20.1091
20.128
20.1073
20.1335
20.1198
20.1322
20.1185
20.0798
20.1593
20.074
20.1636
20.069
20.1365
20.0643
20.1385
20.1682
20.0754
20.1546
20.0865
20.1446
20.0672
20.1339
20.0746
20.11
20.1328
20.1108
20.1309
20.1212
20.1367
20.1212
20.135
20.1389
20.1389
20.1371
20.1371
20.1368
20.1368
20.135
20.135
20.1328
20.11
20.1309
20.1108
20.1367
20.1212
20.135
20.1211
20.0754
20.1682
20.0865
20.1545
20.0672
20.1445
20.0746
20.1338
20.2009
20.0401
20.1568
20.0607
20.195
20.0409
20.1523
20.0623
20.0811
20.0983
20.0915
20.1001
20.0841
20.0989
20.0932
20.0998
20.1004
20.1004
20.1003
20.1003
20.1003
20.1003
20.0998
20.0998
20.0983
20.0811
20.1001
20.0915
20.0989
20.0841
20.0998
20.0932
20.0401
20.2009
20.0607
20.1568
20.0409
20.195
20.0623
20.1523
20.1924
20.0716
20.1981
20.0574
20.1913
20.0664
20.1955
20.0546
20.0731
20.0903
20.076
20.0944
20.0757
20.0928
20.0789
20.0962
20.0988
20.0988
20.1002
20.1002
20.0997
20.0997
20.1005
20.1005
20.0903
20.0731
20.0944
20.076
20.0928
20.0757
20.0962
20.0789
20.0716
20.1924
20.0574
20.1981
20.0664
20.1913
20.0546
20.1955
20.1853
20.087
20.1884
20.081
20.1854
20.0791
20.188
20.0743
20.0735
20.0856
20.0727
20.0875
20.0756
20.0889
20.0751
20.0904
20.0944
20.0944
20.0966
20.0966
20.0966
20.0966
20.0983
20.0983
20.0856
20.0735
20.0875
20.0727
20.0889
20.0756
20.0904
20.0751
20.087
20.1853
20.081
20.1883
20.0791
20.1854
20.0743
20.188
20.1813
20.0928
20.183
20.0907
20.1821
20.0829
20.1835
20.0817
20.0754
20.0838
20.0745
20.0845
20.0771
20.0876
20.0764
20.088
20.0907
20.0907
20.0923
20.0923
20.0939
20.0939
20.0951
20.0951
20.0838
20.0754
20.0845
20.0745
20.0876
20.0771
20.088
20.0764
20.0928
20.1813
20.0907
20.183
20.0829
20.182
20.0817
20.1835
20.179
20.0942
20.18
20.0939
20.1801
20.0827
20.181
20.0831
20.0767
20.0834
20.0762
20.0835
20.0781
20.0876
20.0777
20.0875
20.0889
20.0889
20.0896
20.0896
20.0927
20.0927
20.0931
20.0931
20.0834
20.0767
20.0835
20.0762
20.0876
20.0781
20.0875
20.0777
20.0942
20.179
20.0939
20.18
20.0827
20.1801
20.0831
20.1809
20.1773
20.0937
20.1781
20.0941
20.1787
20.0809
20.1794
20.0819
20.0772
20.0836
20.077
20.0835
20.0783
20.0883
20.0783
20.0879
20.0887
20.0887
20.0886
20.0886
20.0931
20.0931
20.0928
20.0928
20.0836
20.0772
20.0835
20.077
20.0883
20.0784
20.0879
20.0783
20.0937
20.1773
20.0941
20.1781
20.0809
20.1787
20.0819
20.1793
20.1758
20.0924
20.1765
20.0931
20.1775
20.0785
20.1781
20.0798
20.0772
20.0842
20.0772
20.0839
20.0781
20.0893
20.0783
20.0888
20.0894
20.0894
20.0889
20.0889
20.0944
20.0944
20.0937
20.0937
20.0842
20.0772
20.0839
20.0773
20.0893
20.0781
20.0888
20.0783
20.0924
20.1758
20.0931
20.1765
20.0785
20.1775
20.0798
20.1781
20.1745
20.0907
20.1752
20.0916
20.1765
20.076
20.177
20.0773
20.0769
20.0849
20.0771
20.0845
20.0775
20.0903
20.0778
20.0898
20.0907
20.0907
20.09
20.09
20.0961
20.0961
20.0952
20.0952
20.0849
20.0769
20.0845
20.0771
20.0903
20.0775
20.0898
20.0778
20.0907
20.1745
20.0916
20.1752
20.076
20.1764
20.0773
20.177
20.1733
20.0889
20.1739
20.0898
20.1754
20.0736
20.176
20.0748
20.0765
20.0856
20.0767
20.0852
20.0769
20.0914
20.0772
20.0909
20.0921
20.0921
20.0914
20.0914
20.098
20.098
20.0971
20.0971
20.0856
20.0765
20.0852
20.0767
20.0914
20.0769
20.0909
20.0772
20.0889
20.1733
20.0898
20.1739
20.0736
20.1754
20.0748
20.1759
20.1722
20.0873
20.1728
20.0881
20.1744
20.0714
20.1749
20.0724
20.076
20.0863
20.0762
20.0859
20.0762
20.0923
20.0765
20.0919
20.0936
20.0936
20.0929
20.0929
20.0999
20.0999
20.099
20.099
20.0863
20.076
20.0859
20.0763
20.0923
20.0762
20.0919
20.0765
20.0873
20.1722
20.0881
20.1727
20.0714
20.1744
20.0725
20.1749
20.1711
20.0858
20.1717
20.0865
20.1734
20.0693
20.1739
20.0703
20.0754
20.0869
20.0757
20.0866
20.0755
20.0932
20.0759
20.0928
20.0951
20.0951
20.0944
20.0944
20.1016
20.1016
20.1008
20.1008
20.0869
20.0755
20.0866
20.0757
20.0932
20.0755
20.0928
20.0759
20.0858
20.1711
20.0865
20.1716
20.0693
20.1734
20.0703
20.1739
20.1701
20.0844
20.1706
20.085
20.1724
20.0675
20.1729
20.0684
20.0749
20.0875
20.0752
20.0872
20.0749
20.0939
20.0752
20.0935
20.0963
20.0963
20.0957
20.0957
20.1031
20.1031
20.1024
20.1024
20.0875
20.0749
20.0872
20.0752
20.0939
20.0749
20.0935
20.0752
20.0844
20.17
20.085
20.1706
20.0675
20.1724
20.0684
20.1729
20.1691
20.0831
20.1696
20.0837
20.1714
20.0659
20.1719
20.0667
20.0745
20.0879
20.0747
20.0877
20.0743
20.0944
20.0746
20.0942
20.0974
20.0974
20.0969
20.0969
20.1043
20.1043
20.1037
20.1037
20.0879
20.0745
20.0877
20.0747
20.0944
20.0744
20.0942
20.0746
20.0831
20.169
20.0837
20.1695
20.0659
20.1713
20.0667
20.1719
20.1681
20.0819
20.1686
20.0825
20.1704
20.0645
20.1709
20.0652
20.0741
20.0883
20.0743
20.0881
20.0738
20.0949
20.0741
20.0947
20.0983
20.0983
20.0979
20.0979
20.1053
20.1053
20.1048
20.1048
20.0883
20.0741
20.0881
20.0743
20.0949
20.0739
20.0947
20.0741
20.0819
20.168
20.0825
20.1685
20.0645
20.1703
20.0652
20.1708
20.1671
20.0809
20.1676
20.0814
20.1694
20.0633
20.1699
20.0639
20.0737
20.0886
20.0739
20.0885
20.0734
20.0952
20.0736
20.0951
20.0991
20.0991
20.0987
20.0987
20.1061
20.1061
20.1057
20.1057
20.0886
20.0737
20.0885
20.0739
20.0952
20.0734
20.0951
20.0736
20.0809
20.1671
20.0814