/*--------------------------------*- C++ -*----------------------------------*\
  =========                 |
  \\      /  F ield         | OpenFOAM: The Open Source CFD Toolbox
   \\    /   O peration     | Website:  https://openfoam.org
    \\  /    A nd           | Version:  9
     \\/     M anipulation  |
\*---------------------------------------------------------------------------*/
FoamFile
{
    format      ascii;
    class       surfaceScalarField;
    location    "2.3";
    object      phi;
}
// * * * * * * * * * * * * * * * * * * * * * * * * * * * * * * * * * * * * * //

dimensions      [0 3 -1 0 0 0 0];

internalField   nonuniform List<scalar> 
104044
(
3.13111e-06
-0.000147945
-8.05742e-06
0.000143093
9.7788e-06
-8.47881e-05
3.43205e-06
-1.25632e-06
9.27333e-05
-6.98976e-06
1.38062e-06
-5.74521e-06
1.06575e-05
1.46135e-06
-6.95135e-07
-6.95246e-06
-5.15311e-07
-0.000176944
0.000169402
-6.62168e-05
2.41969e-07
6.88916e-05
-6.73857e-08
4.34704e-08
-8.52566e-08
-9.59996e-05
-6.78354e-06
9.78056e-05
3.80649e-06
-0.00010126
-2.91293e-06
-5.19213e-10
0.000102187
1.90088e-06
-3.48199e-08
-5.30447e-06
2.69834e-06
-2.26585e-06
6.12022e-12
9.24711e-07
3.26931e-09
-0.000101573
9.50278e-05
-0.000112324
-1.05652e-09
0.000109416
-6.23571e-08
-1.05093e-08
-2.7497e-12
-0.000103788
-1.04779e-06
0.000104797
3.81081e-08
-0.000103788
-1.04775e-06
5.25099e-10
0.000104798
3.80083e-08
-1.15762e-12
-1.68288e-06
2.89819e-07
-1.68287e-06
-5.78645e-12
2.89776e-07
-2.37237e-13
-0.000113527
0.000112478
-0.000113527
1.06248e-09
0.000112478
-4.5927e-13
1.05101e-08
8.52711e-08
-0.000101261
-2.9127e-06
0.000102188
1.90072e-06
-9.60009e-05
-6.78331e-06
1.25631e-06
9.78065e-05
3.80669e-06
3.48252e-08
-2.26577e-06
9.24619e-07
-5.30433e-06
6.95146e-07
2.69846e-06
-3.24618e-09
-0.000112326
0.000109417
-0.000101575
-2.41909e-07
9.50306e-05
6.23683e-08
-4.34476e-08
-3.13111e-06
-8.47882e-05
3.43137e-06
9.27327e-05
-6.98847e-06
-0.00014794
-8.05712e-06
0.000143088
9.77811e-06
-1.38065e-06
1.46095e-06
-6.95131e-06
-5.74524e-06
1.06571e-05
5.15084e-07
-6.62187e-05
6.88931e-05
-0.000176936
0.000169394
6.73223e-08
2.15473e-06
-0.000137785
-1.13912e-05
0.000133134
1.38874e-05
-9.8441e-05
1.06424e-05
-6.51956e-07
0.000101949
-1.13437e-05
2.93851e-06
-9.98914e-06
1.23586e-05
7.47452e-06
-9.73244e-07
-9.27047e-06
-3.3779e-06
-0.000161132
0.000153119
-7.37914e-05
1.5614e-06
7.94945e-05
-1.71958e-06
8.55131e-07
-4.83077e-08
-9.96221e-05
-3.98022e-06
0.000100668
2.33073e-06
-0.000103213
-4.27002e-06
1.83136e-09
0.000103621
3.81194e-06
-7.91138e-08
-6.17963e-06
3.46906e-06
-4.48656e-06
9.50842e-09
3.37169e-06
1.84266e-07
-8.96286e-05
8.70255e-05
-0.000104997
7.28622e-09
0.000100904
7.46838e-08
6.60415e-09
1.91704e-12
-0.000105394
-3.4038e-06
0.000105576
3.22417e-06
-0.000105395
-3.40372e-06
-1.81049e-09
0.000105576
3.22415e-06
-1.55451e-13
-2.28832e-06
1.70063e-06
-2.28821e-06
-9.49621e-09
1.70057e-06
3.87927e-13
-0.000110196
0.0001068
-0.000110197
-7.26738e-09
0.0001068
1.18868e-13
-6.59178e-09
4.83596e-08
-0.000103214
-4.26996e-06
0.000103622
3.81203e-06
-9.96226e-05
-3.98054e-06
6.51917e-07
0.000100668
2.33141e-06
7.91448e-08
-4.48631e-06
3.37162e-06
-6.17972e-06
9.73227e-07
3.46951e-06
-1.84181e-07
-0.000104999
0.000100906
-8.96313e-05
-1.56122e-06
8.70278e-05
-7.46347e-08
-8.5505e-07
-2.15485e-06
-9.84401e-05
1.06409e-05
0.000101948
-1.13419e-05
-0.00013778
-1.139e-05
0.000133129
1.38859e-05
-2.93856e-06
7.47316e-06
-9.26879e-06
-9.98855e-06
1.23576e-05
3.37717e-06
-7.37921e-05
7.94946e-05
-0.000161124
0.000153112
1.71912e-06
7.04363e-07
-0.000129381
-1.2693e-05
0.000126257
1.51134e-05
-0.000104035
1.33875e-05
-3.55689e-07
0.000105339
-1.36317e-05
1.35251e-06
-1.20963e-05
1.44961e-05
1.22756e-05
-4.33794e-07
-1.2575e-05
-6.48817e-06
-0.000145991
0.000139786
-8.46736e-05
2.57241e-06
8.90005e-05
-4.96775e-06
2.12875e-06
2.32093e-07
-0.000101329
-1.3822e-06
0.000101969
1.53975e-07
-0.000103505
-2.2446e-06
3.61445e-08
0.000103256
2.68991e-06
6.07567e-08
-2.31654e-06
1.16099e-06
-3.17431e-06
2.77602e-09
3.34845e-06
5.10858e-07
-8.64791e-05
8.71584e-05
-9.80673e-05
5.62459e-08
9.62774e-05
3.58618e-07
2.1028e-08
-2.65005e-11
-0.000105301
-2.3363e-06
0.000104786
2.88733e-06
-0.000105301
-2.33631e-06
-3.62259e-08
0.000104786
2.8874e-06
6.18797e-13
-3.0368e-06
3.31469e-06
-3.03679e-06
-2.74251e-09
3.31473e-06
-1.5787e-11
-0.000103784
0.000101504
-0.000103785
-5.62314e-08
0.000101504
-2.18071e-12
-2.10037e-08
-2.3199e-07
-0.000103506
-2.24481e-06
0.000103256
2.69016e-06
-0.000101329
-1.38273e-06
3.55519e-07
0.000101969
1.553e-07
-6.06823e-08
-3.1744e-06
3.34867e-06
-2.31698e-06
4.33704e-07
1.16181e-06
-5.10781e-07
-9.8069e-05
9.62787e-05
-8.64809e-05
-2.57218e-06
8.71595e-05
-3.58494e-07
-2.12853e-06
-7.04572e-07
-0.000104033
1.33855e-05
0.000105338
-1.36295e-05
-0.000129377
-1.26912e-05
0.000126253
1.51112e-05
-1.35267e-06
1.22738e-05
-1.2573e-05
-1.2095e-05
1.44944e-05
6.48686e-06
-8.46731e-05
8.89995e-05
-0.000145983
0.000139779
4.96674e-06
-2.78706e-07
-0.000123682
-1.31931e-05
0.000121509
1.56446e-05
-0.000106179
1.44805e-05
-5.00063e-07
0.000106749
-1.48294e-05
1.60015e-07
-1.28488e-05
1.52635e-05
1.38703e-05
-3.86428e-07
-1.41639e-05
-8.82172e-06
-0.000134611
0.00013024
-9.23727e-05
3.02466e-06
9.50069e-05
-7.67444e-06
2.82369e-06
5.55234e-07
-0.000102499
-7.57099e-07
0.000102987
-7.85545e-07
-0.000103077
-1.06559e-06
1.27095e-07
0.000103009
1.56156e-06
4.0829e-07
-9.24877e-07
-3.9991e-07
-1.51723e-06
7.65579e-08
2.02759e-06
7.90748e-07
-8.84079e-05
8.98848e-05
-9.53024e-05
1.66897e-07
9.48607e-05
6.49311e-07
1.06994e-07
1.12725e-12
-0.000104281
-1.29073e-06
0.000103883
1.81506e-06
-0.000104281
-1.29061e-06
-1.27219e-07
0.000103883
1.81512e-06
-1.72132e-11
-1.69982e-06
2.28168e-06
-1.69986e-06
-7.65732e-08
2.28176e-06
5.07768e-10
-9.99111e-05
9.87867e-05
-9.99116e-05
-1.65427e-07
9.8787e-05
-7.91225e-12
-1.07082e-07
-5.55143e-07
-0.000103077
-1.06601e-06
0.000103009
1.56187e-06
-0.000102499
-7.57546e-07
4.9982e-07
0.000102986
-7.84672e-07
-4.08206e-07
-1.51746e-06
2.02789e-06
-9.25258e-07
3.8619e-07
-3.99143e-07
-7.89842e-07
-9.53034e-05
9.48618e-05
-8.84085e-05
-3.02407e-06
8.98852e-05
-6.49201e-07
-2.8234e-06
2.7847e-07
-0.000106177
1.44781e-05
0.000106748
-1.4827e-05
-0.000123678
-1.31909e-05
0.000121506
1.56419e-05
-1.60247e-07
1.38681e-05
-1.41615e-05
-1.2847e-05
1.52612e-05
8.82005e-06
-9.23713e-05
9.50053e-05
-0.000134605
0.000130234
7.67291e-06
-9.15523e-07
-0.000119703
-1.35082e-05
0.000118168
1.59588e-05
-0.000107137
1.51308e-05
-7.68965e-07
0.000107406
-1.5546e-05
-6.26201e-07
-1.32233e-05
1.56558e-05
1.46873e-05
-6.2333e-07
-1.50786e-05
-1.04475e-05
-0.000126632
0.000123571
-9.6994e-05
3.15233e-06
9.85249e-05
-9.61503e-06
3.08517e-06
7.49638e-07
-0.000103453
-7.29062e-07
0.000103894
-1.23075e-06
-0.00010305
-5.86825e-07
2.40153e-07
0.000103178
9.68275e-07
6.61011e-07
-7.09876e-07
-1.04088e-06
-7.63129e-07
1.80191e-07
1.20297e-06
1.0126e-06
-9.13595e-05
9.27702e-05
-9.47873e-05
2.57756e-07
9.49553e-05
9.00528e-07
2.10835e-07
2.14248e-11
-0.000103621
-7.70972e-07
0.000103477
1.15469e-06
-0.000103621
-7.71015e-07
-2.40053e-07
0.000103477
1.15472e-06
-4.65036e-13
-9.82297e-07
1.42511e-06
-9.82382e-07
-1.80122e-07
1.42517e-06
1.39403e-11
-9.80154e-05
9.75021e-05
-9.80157e-05
-2.5766e-07
9.75024e-05
-8.4193e-11
-2.11222e-07
-7.49531e-07
-0.00010305
-5.86917e-07
0.000103178
9.68485e-07
-0.000103452
-7.29326e-07
7.68604e-07
0.000103893
-1.2299e-06
-6.60912e-07
-7.63235e-07
1.20321e-06
-7.10121e-07
6.23005e-07
-1.04002e-06
-1.01238e-06
-9.47878e-05
9.49556e-05
-9.13595e-05
-3.15208e-06
9.27699e-05
-9.00508e-07
-3.08494e-06
9.1523e-07
-0.000107136
1.51282e-05
0.000107404
-1.55435e-05
-0.0001197
-1.35055e-05
0.000118165
1.59557e-05
6.25922e-07
1.46848e-05
-1.50761e-05
-1.3221e-05
1.5653e-05
1.04454e-05
-9.69922e-05
9.8523e-05
-0.000126626
0.000123566
9.61305e-06
-1.3244e-06
-0.000116876
-1.37392e-05
0.000115767
1.61725e-05
-0.000107593
1.55617e-05
-1.04407e-06
0.000107721
-1.59705e-05
-1.13105e-06
-1.34902e-05
1.59133e-05
1.52097e-05
-8.99485e-07
-1.56281e-05
-1.15463e-05
-0.000121023
0.00011883
-9.96728e-05
3.12647e-06
0.000100562
-1.0942e-05
3.1199e-06
8.37646e-07
-0.000104293
-8.06487e-07
0.000104656
-1.43746e-06
-0.000103365
-4.33558e-07
3.8046e-07
0.000103581
6.7412e-07
7.96282e-07
-7.56065e-07
-1.33871e-06
-4.78519e-07
3.00704e-07
7.87653e-07
1.16911e-06
-9.40461e-05
9.51969e-05
-9.52698e-05
3.32483e-07
9.56729e-05
1.08795e-06
2.94888e-07
4.18865e-11
-0.000103438
-4.53961e-07
0.000103491
7.81956e-07
-0.000103438
-4.53995e-07
-3.80299e-07
0.00010349
7.81954e-07
3.30339e-11
-5.91648e-07
9.31321e-07
-5.9169e-07
-3.00566e-07
9.31337e-07
3.82177e-11
-9.72053e-05
9.70838e-05
-9.72055e-05
-3.32364e-07
9.70839e-05
2.84998e-11
-2.9479e-07
-8.37545e-07
-0.000103364
-4.3357e-07
0.000103581
6.74269e-07
-0.000104292
-8.06721e-07
1.04364e-06
0.000104655
-1.43662e-06
-7.96177e-07
-4.78573e-07
7.87836e-07
-7.56318e-07
8.9909e-07
-1.33788e-06
-1.16883e-06
-9.527e-05
9.56729e-05
-9.40455e-05
-3.12623e-06
9.51962e-05
-1.0877e-06
-3.11965e-06
1.32408e-06
-0.000107591
1.5559e-05
0.00010772
-1.59678e-05
-0.000116873
-1.37363e-05
0.000115764
1.61692e-05
1.13074e-06
1.52071e-05
-1.56255e-05
-1.34877e-05
1.59103e-05
1.15438e-05
-9.96707e-05
0.00010056
-0.000121018
0.000118825
1.09397e-05
-1.58856e-06
-0.00011482
-1.38872e-05
0.000113999
1.62968e-05
-0.000107811
1.58344e-05
-1.28465e-06
0.00010787
-1.61972e-05
-1.45654e-06
-1.3683e-05
1.6086e-05
1.55571e-05
-1.15834e-06
-1.59449e-05
-1.22696e-05
-0.000116979
0.000115361
-0.00010123
3.03811e-06
0.000101757
-1.1832e-05
3.05695e-06
8.49628e-07
-0.000104979
-8.89123e-07
0.00010527
-1.53574e-06
-0.000103819
-4.06345e-07
4.68352e-07
0.00010407
5.36761e-07
8.42865e-07
-8.43011e-07
-1.48176e-06
-4.08288e-07
4.27473e-07
5.86387e-07
1.26464e-06
-9.61988e-05
9.70832e-05
-9.61186e-05
3.85157e-07
9.65918e-05
1.21207e-06
3.5806e-07
5.40145e-11
-0.000103604
-2.66763e-07
0.000103762
5.767e-07
-0.000103603
-2.66778e-07
-4.6818e-07
0.000103762
5.76675e-07
4.77387e-11
-3.42581e-07
6.57044e-07
-3.42606e-07
-4.27309e-07
6.57031e-07
5.03801e-11
-9.70993e-05
9.72176e-05
-9.70993e-05
-3.85012e-07
9.72176e-05
4.45969e-11
-3.57928e-07
-8.49545e-07
-0.000103818
-4.06313e-07
0.000104069
5.3687e-07
-0.000104978
-8.89354e-07
1.28417e-06
0.000105269
-1.53491e-06
-8.42774e-07
-4.08278e-07
5.86514e-07
-8.43249e-07
1.15789e-06
-1.48093e-06
-1.26432e-06
-9.61184e-05
9.65914e-05
-9.61979e-05
-3.0379e-06
9.70821e-05
-1.21177e-06
-3.05672e-06
1.58823e-06
-0.000107809
1.58316e-05
0.000107868
-1.61945e-05
-0.000114818
-1.38842e-05
0.000113997
1.62934e-05
1.45621e-06
1.55544e-05
-1.59423e-05
-1.36803e-05
1.60827e-05
1.2267e-05
-0.000101228
0.000101754
-0.000116975
0.000115357
1.18295e-05
-1.76038e-06
-0.000113288
-1.39566e-05
0.000112665
1.63403e-05
-0.000107911
1.59842e-05
-1.47733e-06
0.000107936
-1.62915e-05
-1.66727e-06
-1.37856e-05
1.61642e-05
1.57614e-05
-1.37262e-06
-1.60977e-05
-1.27301e-05
-0.00011398
0.000112754
-0.000102158
2.92991e-06
0.000102482
-1.24045e-05
2.95575e-06
8.16752e-07
-0.000105528
-9.49705e-07
0.000105758
-1.57481e-06
-0.000104321
-4.23539e-07
5.11069e-07
0.00010457
4.79685e-07
8.28743e-07
-9.15109e-07
-1.54415e-06
-4.07708e-07
4.89033e-07
4.96243e-07
1.31196e-06
-9.78431e-05
9.85113e-05
-9.70651e-05
4.17492e-07
9.7536e-05
1.28075e-06
3.99712e-07
6.3716e-11
-0.000103948
-1.71179e-07
0.000104155
4.75145e-07
-0.000103948
-1.71179e-07
-5.10886e-07
0.000104155
4.75104e-07
5.86079e-11
-2.08389e-07
5.10911e-07
-2.08398e-07
-4.88856e-07
5.1088e-07
5.82357e-11
-9.74089e-05
9.76551e-05
-9.74088e-05
-4.17332e-07
9.7655e-05
5.4248e-11
-3.9956e-07
-8.1669e-07
-0.00010432
-4.23466e-07
0.00010457
4.7976e-07
-0.000105526
-9.49936e-07
1.47682e-06
0.000105757
-1.57399e-06
-8.28672e-07
-4.07661e-07
4.96343e-07
-9.15349e-07
1.37213e-06
-1.54333e-06
-1.31162e-06
-9.70646e-05
9.75355e-05
-9.78419e-05
-2.92973e-06
9.851e-05
-1.28042e-06
-2.95556e-06
1.76004e-06
-0.00010791
1.59813e-05
0.000107934
-1.62889e-05
-0.000113286
-1.39535e-05
0.000112663
1.63369e-05
1.66693e-06
1.57586e-05
-1.60951e-05
-1.37829e-05
1.61609e-05
1.27274e-05
-0.000102156
0.00010248
-0.000113976
0.00011275
1.24019e-05
-1.8696e-06
-0.000112116
-1.39553e-05
0.000111629
1.63119e-05
-0.000107952
1.60173e-05
-1.62497e-06
0.000107956
-1.62659e-05
-1.8027e-06
-1.38118e-05
1.61632e-05
1.58423e-05
-1.53966e-06
-1.61218e-05
-1.29985e-05
-0.000111695
0.000110738
-0.000102727
2.81852e-06
0.000102927
-1.2753e-05
2.84465e-06
7.61613e-07
-0.000105963
-9.87348e-07
0.000106144
-1.58052e-06
-0.000104809
-4.57277e-07
5.25864e-07
0.000105039
4.62995e-07
7.82755e-07
-9.62205e-07
-1.565e-06
-4.35554e-07
5.15631e-07
4.63799e-07
1.32495e-06
-9.90853e-05
9.95915e-05
-9.79861e-05
4.33177e-07
9.84206e-05
1.30844e-06
4.2278e-07
7.0167e-11
-0.000104369
-1.30861e-07
0.000104588
4.3791e-07
-0.000104369
-1.30848e-07
-5.25676e-07
0.000104588
4.37858e-07
6.64377e-11
-1.4445e-07
4.45884e-07
-1.44445e-07
-5.15447e-07
4.45838e-07
6.27705e-11
-9.79334e-05
9.82356e-05
-9.79332e-05
-4.33007e-07
9.82354e-05
6.02983e-11
-4.22616e-07
-7.61572e-07
-0.000104808
-4.57172e-07
0.000105038
4.6305e-07
-0.000105962
-9.87563e-07
1.62443e-06
0.000106143
-1.57973e-06
-7.82705e-07
-4.35466e-07
4.63865e-07
-9.62435e-07
1.53914e-06
-1.5642e-06
-1.3246e-06
-9.79855e-05
9.84199e-05
-9.9084e-05
-2.81835e-06
9.95902e-05
-1.3081e-06
-2.84448e-06
1.86928e-06
-0.000107951
1.60145e-05
0.000107955
-1.62633e-05
-0.000112114
-1.39522e-05
0.000111627
1.63085e-05
1.80236e-06
1.58394e-05
-1.61192e-05
-1.38091e-05
1.616e-05
1.29958e-05
-0.000102724
0.000102925
-0.000111692
0.000110735
1.27503e-05
-1.93604e-06
-0.000111191
-1.38892e-05
0.000110797
1.62196e-05
-0.000107955
1.59505e-05
-1.73295e-06
0.000107943
-1.61409e-05
-1.88783e-06
-1.37793e-05
1.61046e-05
1.58255e-05
-1.66559e-06
-1.60468e-05
-1.31214e-05
-0.000109902
0.000109135
-0.000103073
2.70977e-06
0.000103192
-1.29436e-05
2.73565e-06
6.98222e-07
-0.000106304
-1.01049e-06
0.000106442
-1.55901e-06
-0.000105254
-4.95185e-07
5.22821e-07
0.000105454
4.70388e-07
7.2284e-07
-9.91774e-07
-1.55626e-06
-4.71217e-07
5.20588e-07
4.59116e-07
1.31561e-06
-0.000100026
0.00010041
-9.88268e-05
4.36354e-07
9.92109e-05
1.30911e-06
4.31682e-07
7.34863e-11
-0.000104801
-1.23774e-07
0.000105008
4.39693e-07
-0.000104801
-1.23748e-07
-5.22633e-07
0.000105007
4.39629e-07
7.13027e-11
-1.23139e-07
4.31057e-07
-1.23122e-07
-5.20402e-07
4.31001e-07
6.4756e-11
-9.85441e-05
9.88566e-05
-9.85439e-05
-4.3618e-07
9.88564e-05
6.33934e-11
-4.31511e-07
-6.98198e-07
-0.000105253
-4.95052e-07
0.000105453
4.70417e-07
-0.000106303
-1.0107e-06
1.7324e-06
0.000106441
-1.55825e-06
-7.2281e-07
-4.711e-07
4.59159e-07
-9.9199e-07
1.66505e-06
-1.55549e-06
-1.31527e-06
-9.88261e-05
9.92101e-05
-0.000100025
-2.70962e-06
0.000100409
-1.30877e-06
-2.7355e-06
1.93572e-06
-0.000107954
1.59476e-05
0.000107941
-1.61383e-05
-0.00011119
-1.38862e-05
0.000110795
1.62163e-05
1.8875e-06
1.58227e-05
-1.60442e-05
-1.37766e-05
1.61014e-05
1.31187e-05
-0.000103071
0.00010319
-0.000109899
0.000109132
1.29409e-05
-1.97464e-06
-0.000110434
-1.37819e-05
0.000110101
1.60901e-05
-0.000107925
1.58159e-05
-1.80922e-06
0.000107894
-1.59507e-05
-1.93884e-06
-1.36943e-05
1.59961e-05
1.57262e-05
-1.75619e-06
-1.58913e-05
-1.3145e-05
-0.000108455
0.000107818
-0.000103272
2.6084e-06
0.000103335
-1.30146e-05
2.63194e-06
6.35175e-07
-0.000106561
-1.0255e-06
0.000106659
-1.51699e-06
-0.000105635
-5.36589e-07
5.09567e-07
0.000105798
4.99068e-07
6.59765e-07
-1.01013e-06
-1.52475e-06
-5.10814e-07
5.11774e-07
4.78002e-07
1.29398e-06
-0.000100739
0.000101028
-9.95628e-05
4.31339e-07
9.98889e-05
1.29315e-06
4.3038e-07
7.55329e-11
-0.000105201
-1.36132e-07
0.000105381
4.65467e-07
-0.0001052
-1.36098e-07
-5.09383e-07
0.000105381
4.65396e-07
7.38559e-11
-1.26833e-07
4.45548e-07
-1.26805e-07
-5.1159e-07
4.45483e-07
6.52428e-11
-9.91601e-05
9.94553e-05
-9.91598e-05
-4.31165e-07
9.9455e-05
6.45387e-11
-4.30207e-07
-6.35165e-07
-0.000105634
-5.36434e-07
0.000105797
4.99073e-07
-0.00010656
-1.0257e-06
1.80867e-06
0.000106658
-1.51625e-06
-6.59749e-07
-5.10672e-07
4.7802e-07
-1.01034e-06
1.75564e-06
-1.52401e-06
-1.29363e-06
-9.9562e-05
9.98881e-05
-0.000100737
-2.60827e-06
0.000101026
-1.29281e-06
-2.6318e-06
1.97433e-06
-0.000107924
1.58131e-05
0.000107893
-1.59482e-05
-0.000110433
-1.37789e-05
0.000110099
1.60869e-05
1.93851e-06
1.57234e-05
-1.58888e-05
-1.36917e-05
1.5993e-05
1.31423e-05
-0.00010327
0.000103333
-0.000108452
0.000107816
1.30119e-05
-1.99226e-06
-0.000109785
-1.36318e-05
0.000109487
1.59217e-05
-0.000107858
1.56153e-05
-1.85846e-06
0.000107806
-1.56972e-05
-1.96619e-06
-1.35684e-05
1.58504e-05
1.55617e-05
-1.81796e-06
-1.56731e-05
-1.30854e-05
-0.000107246
0.0001067
-0.000103365
2.51324e-06
0.000103381
-1.29966e-05
2.53506e-06
5.75689e-07
-0.000106739
-1.03725e-06
0.000106797
-1.45557e-06
-0.000105939
-5.81361e-07
4.9081e-07
0.000106059
5.46754e-07
5.98931e-07
-1.02295e-06
-1.47354e-06
-5.5335e-07
4.95586e-07
5.15262e-07
1.26445e-06
-0.000101272
0.000101484
-0.000100181
4.21129e-07
0.000100443
1.26758e-06
4.22574e-07
7.64388e-11
-0.000105541
-1.62642e-07
0.000105684
5.11077e-07
-0.000105541
-1.62601e-07
-4.90628e-07
0.000105684
5.11e-07
7.5079e-11
-1.46559e-07
4.81375e-07
-1.46524e-07
-4.95406e-07
4.81304e-07
6.47983e-11
-9.97312e-05
9.99896e-05
-9.97309e-05
-4.20956e-07
9.99893e-05
6.44802e-11
-4.22402e-07
-5.75696e-07
-0.000105938
-5.81192e-07
0.000106058
5.46746e-07
-0.000106738
-1.03744e-06
1.85792e-06
0.000106796
-1.45486e-06
-5.98929e-07
-5.53193e-07
5.15264e-07
-1.02316e-06
1.81741e-06
-1.47282e-06
-1.26411e-06
-0.00010018
0.000100442
-0.000101271
-2.51313e-06
0.000101482
-1.26724e-06
-2.53494e-06
1.99196e-06
-0.000107856
1.56125e-05
0.000107805
-1.56947e-05
-0.000109783
-1.36288e-05
0.000109486
1.59184e-05
1.96588e-06
1.55589e-05
-1.56706e-05
-1.35658e-05
1.58474e-05
1.30826e-05
-0.000103363
0.00010338
-0.000107244
0.000106697
1.29938e-05
-1.99699e-06
-0.000109196
-1.34671e-05
0.000108914
1.57457e-05
-0.000107745
1.53802e-05
-1.88633e-06
0.000107666
-1.54111e-05
-1.97583e-06
-1.34051e-05
1.56719e-05
1.53379e-05
-1.85511e-06
-1.53983e-05
-1.2977e-05
-0.000106201
0.000105711
-0.000103369
2.42762e-06
0.000103344
-1.29061e-05
2.44457e-06
5.31953e-07
-0.000106838
-1.05423e-06
0.000106853
-1.37901e-06
-0.000106153
-6.24102e-07
4.72238e-07
0.000106225
6.11001e-07
5.43287e-07
-1.03511e-06
-1.40441e-06
-5.98135e-07
4.76043e-07
5.71407e-07
1.23064e-06
-0.000101657
0.0001018
-0.000100669
4.08812e-07
0.000100867
1.23563e-06
4.1097e-07
7.41666e-11
-0.000105803
-1.98806e-07
0.0001059
5.73636e-07
-0.000105803
-1.98761e-07
-4.72056e-07
0.0001059
5.73551e-07
7.4503e-11
-1.78137e-07
5.35123e-07
-1.78096e-07
-4.75861e-07
5.35044e-07
6.38424e-11
-0.000100222
0.000100432
-0.000100222
-4.08641e-07
0.000100432
6.37306e-11
-4.10799e-07
-5.31926e-07
-0.000106152
-6.23929e-07
0.000106225
6.10963e-07
-0.000106838
-1.0544e-06
1.88579e-06
0.000106853
-1.37831e-06
-5.43259e-07
-5.97968e-07
5.71383e-07
-1.0353e-06
1.85458e-06
-1.40371e-06
-1.2303e-06
-0.000100668
0.000100866
-0.000101656
-2.42751e-06
0.000101799
-1.2353e-06
-2.44445e-06
1.99671e-06
-0.000107744
1.53774e-05
0.000107665
-1.54086e-05
-0.000109195
-1.34642e-05
0.000108913
1.57425e-05
1.97553e-06
1.53351e-05
-1.53958e-05
-1.34025e-05
1.56689e-05
1.29743e-05
-0.000103367
0.000103342
-0.000106198
0.000105708
1.29034e-05
-1.98952e-06
-0.00010863
-1.32717e-05
0.000108347
1.55444e-05
-0.000107574
1.50923e-05
-1.89463e-06
0.00010746
-1.50727e-05
-1.97402e-06
-1.32262e-05
1.54844e-05
1.50781e-05
-1.87205e-06
-1.50886e-05
-1.28134e-05
-0.000105254
0.000104796
-0.00010329
2.34692e-06
0.000103222
-1.27701e-05
2.36238e-06
5.00667e-07
-0.000106847
-1.07884e-06
0.000106814
-1.28356e-06
-0.000106273
-6.6317e-07
4.54046e-07
0.000106295
6.88079e-07
5.1046e-07
-1.05676e-06
-1.31962e-06
-6.37262e-07
4.58271e-07
6.41551e-07
1.19301e-06
-0.000101906
0.000101981
-0.000101031
3.95287e-07
0.000101166
1.19982e-06
3.9807e-07
7.23274e-11
-0.000105972
-2.41847e-07
0.000106017
6.49959e-07
-0.000105971
-2.41798e-07
-4.53869e-07
0.000106017
6.49868e-07
7.22258e-11
-2.17402e-07
6.04066e-07
-2.17358e-07
-4.58093e-07
6.03981e-07
6.33079e-11
-0.000100613
0.000100766
-0.000100613
-3.95118e-07
0.000100766
6.28072e-11
-3.97902e-07
-5.0064e-07
-0.000106273
-6.62985e-07
0.000106294
6.88018e-07
-0.000106846
-1.07898e-06
1.8941e-06
0.000106814
-1.2829e-06
-5.10435e-07
-6.37089e-07
6.41505e-07
-1.05693e-06
1.87152e-06
-1.31895e-06
-1.19268e-06
-0.00010103
0.000101165
-0.000101905
-2.34681e-06
0.00010198
-1.19949e-06
-2.36227e-06
1.98924e-06
-0.000107573
1.50896e-05
0.000107459
-1.50703e-05
-0.000108629
-1.32688e-05
0.000108346
1.55413e-05
1.97374e-06
1.50753e-05
-1.50862e-05
-1.32237e-05
1.54815e-05
1.28107e-05
-0.000103288
0.00010322
-0.000105252
0.000104794
1.27674e-05
-1.9753e-06
-0.000108053
-1.30717e-05
0.000107753
1.53469e-05
-0.000107331
1.47796e-05
-1.89033e-06
0.000107173
-1.47072e-05
-1.96253e-06
-1.30261e-05
1.52827e-05
1.47762e-05
-1.8732e-06
-1.47364e-05
-1.26207e-05
-0.00010436
0.000103909
-0.000103122
2.27163e-06
0.00010301
-1.25899e-05
2.28554e-06
4.74052e-07
-0.000106759
-1.10795e-06
0.000106673
-1.1705e-06
-0.000106289
-7.05935e-07
4.36317e-07
0.000106254
7.79287e-07
4.81749e-07
-1.08334e-06
-1.21613e-06
-6.7724e-07
4.40299e-07
7.24415e-07
1.15582e-06
-0.000102021
0.000102029
-0.000101266
3.81751e-07
0.000101334
1.16226e-06
3.84527e-07
6.90204e-11
-0.000106035
-2.91669e-07
0.000106022
7.40408e-07
-0.000106034
-2.91614e-07
-4.36147e-07
0.000106022
7.4031e-07
7.06038e-11
-2.63335e-07
6.86391e-07
-2.63286e-07
-4.40125e-07
6.863e-07
6.13488e-11
-0.000100887
0.000100977
-0.000100887
-3.81585e-07
0.000100977
6.24452e-11
-3.84361e-07
-4.74032e-07
-0.000106289
-7.0573e-07
0.000106253
7.79198e-07
-0.000106758
-1.10806e-06
1.8898e-06
0.000106672
-1.16989e-06
-4.81724e-07
-6.7705e-07
7.24343e-07
-1.08348e-06
1.87268e-06
-1.21549e-06
-1.1555e-06
-0.000101266
0.000101334
-0.00010202
-2.27153e-06
0.000102028
-1.16193e-06
-2.28542e-06
1.97508e-06
-0.00010733
1.47771e-05
0.000107172
-1.47049e-05
-0.000108052
-1.3069e-05
0.000107752
1.53439e-05
1.96226e-06
1.47735e-05
-1.47341e-05
-1.30237e-05
1.52799e-05
1.2618e-05
-0.000103121
0.000103008
-0.000104358
0.000103907
1.25873e-05
-1.95449e-06
-0.000107435
-1.28622e-05
0.000107105
1.51468e-05
-0.000106997
1.4435e-05
-1.87447e-06
0.000106787
-1.43053e-05
-1.94558e-06
-1.28257e-05
1.50891e-05
1.44535e-05
-1.86316e-06
-1.43597e-05
-1.23958e-05
-0.000103469
0.000103002
-0.000102866
2.20195e-06
0.000102703
-1.23853e-05
2.21232e-06
4.51507e-07
-0.000106561
-1.14222e-06
0.000106415
-1.03794e-06
-0.000106188
-7.5423e-07
4.19106e-07
0.000106088
8.86438e-07
4.57481e-07
-1.1135e-06
-1.09509e-06
-7.22053e-07
4.23077e-07
8.22483e-07
1.11784e-06
-0.000102002
0.000101944
-0.000101367
3.67941e-07
0.000101363
1.12589e-06
3.71191e-07
5.43866e-11
-0.000105978
-3.48552e-07
0.0001059
8.45814e-07
-0.000105978
-3.48491e-07
-4.18952e-07
0.0001059
8.45715e-07
6.37954e-11
-3.16024e-07
7.83259e-07
-3.15968e-07
-4.22912e-07
7.83161e-07
4.96756e-11
-0.000101033
0.000101052
-0.000101032
-3.67782e-07
0.000101052
5.53579e-11
-3.71031e-07
-4.51457e-07
-0.000106187
-7.53992e-07
0.000106087
8.86334e-07
-0.00010656
-1.14225e-06
1.87406e-06
0.000106414
-1.03738e-06
-4.57452e-07
-7.21836e-07
8.22383e-07
-1.11358e-06
1.86265e-06
-1.09452e-06
-1.11747e-06
-0.000101366
0.000101362
-0.000102001
-2.20172e-06
0.000101943
-1.12555e-06
-2.21219e-06
1.95411e-06
-0.000106996
1.44323e-05
0.000106787
-1.4303e-05
-0.000107434
-1.2859e-05
0.000107104
1.51437e-05
1.94532e-06
1.44509e-05
-1.43574e-05
-1.28233e-05
1.50864e-05
1.2393e-05
-0.000102865
0.000102702
-0.000103466
0.000103
1.23826e-05
-1.93048e-06
-0.000106753
-1.26439e-05
0.000106379
1.49485e-05
-0.000106553
1.40668e-05
-1.85138e-06
0.000106282
-1.38749e-05
-1.92294e-06
-1.26239e-05
1.48992e-05
1.41101e-05
-1.84442e-06
-1.39537e-05
-1.2153e-05
-0.000102535
0.000102044
-0.000102508
2.13784e-06
0.000102284
-1.21563e-05
2.14877e-06
4.33071e-07
-0.00010624
-1.18754e-06
0.000106025
-8.82172e-07
-0.000105954
-8.11266e-07
4.03011e-07
0.000105781
1.01414e-06
4.37436e-07
-1.15304e-06
-9.53855e-07
-7.73539e-07
4.06618e-07
9.37985e-07
1.08461e-06
-0.00010185
0.000101716
-0.000101321
3.55201e-07
0.000101239
1.08945e-06
3.57652e-07
3.29877e-11
-0.000105786
-4.14268e-07
0.000105634
9.69902e-07
-0.000105786
-4.14211e-07
-4.02959e-07
0.000105634
9.69823e-07
3.09619e-11
-3.76626e-07
8.96483e-07
-3.76565e-07
-4.06534e-07
8.96392e-07
5.83184e-11
-0.000101033
0.000100974
-0.000101033
-3.5504e-07
0.000100974
4.81547e-11
-3.57506e-07
-4.33376e-07
-0.000105954
-8.11019e-07
0.000105781
1.01412e-06
-0.000106239
-1.18743e-06
1.84993e-06
0.000106025
-8.81443e-07
-4.37547e-07
-7.73273e-07
9.37899e-07
-1.15293e-06
1.84367e-06
-9.53303e-07
-1.08422e-06
-0.00010132
0.000101239
-0.000101849
-2.13735e-06
0.000101715
-1.08907e-06
-2.14842e-06
1.92955e-06
-0.00010655
1.40659e-05
0.000106278
-1.38731e-05
-0.000106752
-1.26435e-05
0.000106379
1.49459e-05
1.92371e-06
1.41079e-05
-1.39516e-05
-1.2621e-05
1.48964e-05
1.21524e-05
-0.000102508
0.000102284
-0.000102533
0.000102042
1.2154e-05
-1.90452e-06
-0.000105975
-1.24053e-05
0.000105538
1.47464e-05
-0.000105983
1.36593e-05
-1.82052e-06
0.000105646
-1.3406e-05
-1.89834e-06
-1.23915e-05
1.46938e-05
1.37207e-05
-1.81659e-06
-1.35041e-05
-1.18891e-05
-0.000101554
0.000101038
-0.000102018
2.07461e-06
0.000101713
-1.19021e-05
2.08473e-06
4.18077e-07
-0.000105778
-1.24462e-06
0.000105486
-7.02193e-07
-0.000105571
-8.79526e-07
3.87983e-07
0.000105317
1.16396e-06
4.2081e-07
-1.20392e-06
-7.85996e-07
-8.361e-07
3.91153e-07
1.07577e-06
1.05241e-06
-0.000101539
0.000101316
-0.000101115
3.43295e-07
0.000100945
1.05771e-06
3.45806e-07
2.09971e-10
-0.000105443
-4.90633e-07
0.000105207
1.11406e-06
-0.000105442
-4.9062e-07
-3.87498e-07
0.000105207
1.114e-06
1.26632e-10
-4.4703e-07
1.02934e-06
-4.47002e-07
-3.90875e-07
1.02928e-06
1.88563e-10
-0.000100872
0.000100725
-0.000100872
-3.42886e-07
0.000100725
1.21426e-10
-3.45521e-07
-4.17752e-07
-0.000105571
-8.79449e-07
0.000105316
1.1641e-06
-0.000105777
-1.24456e-06
1.81971e-06
0.000105485
-7.00745e-07
-4.20667e-07
-8.36e-07
1.07589e-06
-1.20418e-06
1.81609e-06
-7.84632e-07
-1.05187e-06
-0.000101114
0.000100944
-0.000101538
-2.07388e-06
0.000101315
-1.0572e-06
-2.08392e-06
1.89537e-06
-0.000105982
1.36544e-05
0.000105646
-1.3394e-05
-0.000105975
-1.24018e-05
0.000105538
1.47335e-05
1.89218e-06
1.37155e-05
-1.3495e-05
-1.23871e-05
1.46838e-05
1.18857e-05
-0.000102016
0.000101711
-0.000101554
0.000101038
1.18993e-05
-1.87416e-06
-0.000105065
-1.21923e-05
0.000104553
1.45777e-05
-0.000105277
1.32471e-05
-1.78514e-06
0.000104858
-1.29172e-05
-1.87212e-06
-1.21642e-05
1.45098e-05
1.33131e-05
-1.78509e-06
-1.30308e-05
-1.16226e-05
-0.000100515
9.99453e-05
-0.000101361
2.01588e-06
0.000100969
-1.16411e-05
2.02458e-06
4.06751e-07
-0.000105157
-1.30608e-06
0.000104779
-5.07637e-07
-0.000105022
-9.55984e-07
3.74076e-07
0.000104677
1.3334e-06
4.07862e-07
-1.26395e-06
-6.00169e-07
-9.08098e-07
3.77034e-07
1.23413e-06
1.02289e-06
-0.00010105
0.000100737
-0.00010073
3.31742e-07
0.000100465
1.02729e-06
3.34214e-07
1.05533e-10
-0.000104929
-5.75561e-07
0.000104601
1.27752e-06
-0.000104929
-5.75503e-07
-3.73831e-07
0.000104601
1.27741e-06
1.96067e-10
-5.2698e-07
1.18192e-06
-5.26945e-07
-3.76629e-07
1.18184e-06
1.18594e-10
-0.000100532
0.000100288
-0.000100532
-3.31493e-07
0.000100288
1.8261e-10
-3.33842e-07
-4.06688e-07
-0.000105022
-9.55651e-07
0.000104677
1.33316e-06
-0.000105157
-1.30521e-06
1.78434e-06
0.000104779
-5.07774e-07
-4.07889e-07
-9.07837e-07
1.23404e-06
-1.26292e-06
1.78295e-06
-6.00003e-07
-1.0225e-06
-0.000100729
0.000100464
-0.00010105
-2.01521e-06
0.000100737
-1.02688e-06
-2.02431e-06
1.87435e-06
-0.000105276
1.32441e-05
0.000104857
-1.29153e-05
-0.000105065
-1.21888e-05
0.000104553
1.45756e-05
1.86577e-06
1.33152e-05
-1.30286e-05
-1.2169e-05
1.45076e-05
1.16185e-05
-0.000101362
0.000100972
-0.000100509
9.99386e-05
1.16401e-05
-1.84038e-06
-0.000104002
-1.20148e-05
0.000103408
1.44489e-05
-0.000104401
1.28377e-05
-1.74698e-06
0.000103882
-1.24125e-05
-1.83393e-06
-1.19761e-05
1.43612e-05
1.29071e-05
-1.74714e-06
-1.2537e-05
-1.13498e-05
-9.93419e-05
9.86769e-05
-0.000100536
1.96119e-06
0.000100062
-1.13727e-05
1.96811e-06
3.97889e-07
-0.00010436
-1.36586e-06
0.000103885
-3.03143e-07
-0.000104288
-1.04173e-06
3.61003e-07
0.000103843
1.52373e-06
3.9785e-07
-1.32445e-06
-4.01876e-07
-9.87989e-07
3.63474e-07
1.41174e-06
9.95672e-07
-0.000100381
9.99809e-05
-0.000100153
3.2074e-07
9.97859e-05
9.98933e-07
3.22871e-07
1.03142e-11
-0.000104226
-6.70191e-07
0.000103796
1.46162e-06
-0.000104226
-6.70114e-07
-3.60961e-07
0.000103796
1.46153e-06
2.68069e-11
-6.15563e-07
1.35342e-06
-6.15499e-07
-3.63409e-07
1.35334e-06
6.62325e-11
-9.99952e-05
9.96457e-05
-9.99951e-05
-3.20531e-07
9.96456e-05
6.70335e-11
-3.2271e-07
-3.98165e-07
-0.000104288
-1.0415e-06
0.000103842
1.52385e-06
-0.00010436
-1.36645e-06
1.74501e-06
0.000103885
-3.01296e-07
-3.98023e-07
-9.87769e-07
1.41177e-06
-1.32479e-06
1.74613e-06
-4.00686e-07
-9.95133e-07
-0.000100152
9.97856e-05
-0.000100381
-1.95982e-06
9.99791e-05
-9.98614e-07
-1.96724e-06
1.83947e-06
-0.000104399
1.2829e-05
0.000103881
-1.24053e-05
-0.000104
-1.20061e-05
0.000103407
1.44391e-05
1.83831e-06
1.28992e-05
-1.25328e-05
-1.19648e-05
1.4356e-05
1.1348e-05
-0.000100535
0.000100056
-9.93428e-05
9.86846e-05
1.1369e-05
-1.81182e-06
-0.000102763
-1.18244e-05
0.000102066
1.43327e-05
-0.000103319
1.23945e-05
-1.70327e-06
0.000102693
-1.18766e-05
-1.81217e-06
-1.17842e-05
1.42423e-05
1.2482e-05
-1.70759e-06
-1.20235e-05
-1.10693e-05
-9.7991e-05
9.72358e-05
-9.95302e-05
1.90974e-06
9.89457e-05
-1.10984e-05
1.9158e-06
3.90012e-07
-0.000103371
-1.44353e-06
0.000102791
-7.00219e-08
-0.000103349
-1.13741e-06
3.48974e-07
0.000102793
1.73477e-06
3.90527e-07
-1.38574e-06
-1.98422e-07
-1.07793e-06
3.51142e-07
1.61089e-06
9.68277e-07
-9.95382e-05
9.90362e-05
-9.93684e-05