/*--------------------------------*- C++ -*----------------------------------*\
  =========                 |
  \\      /  F ield         | OpenFOAM: The Open Source CFD Toolbox
   \\    /   O peration     | Website:  https://openfoam.org
    \\  /    A nd           | Version:  9
     \\/     M anipulation  |
\*---------------------------------------------------------------------------*/
FoamFile
{
    format      ascii;
    class       volScalarField;
    location    "0.4";
    object      nut;
}
// * * * * * * * * * * * * * * * * * * * * * * * * * * * * * * * * * * * * * //

dimensions      [0 2 -1 0 0 0 0];

internalField   nonuniform List<scalar> 
36360
(
0.000652164
0.000544148
0.00040204
0.000364384
0.000210466
0.000172922
0.00018981
0.000170591
0.000200801
0.000160824
0.000178921
0.000159072
0.000148776
0.000146717
0.000162459
0.000161827
0.000157651
0.000157649
0.000158077
0.000158077
0.00014661
0.00014661
0.000161787
0.000161787
0.000160809
0.000200721
0.000159069
0.000178891
0.000146717
0.00014877
0.000161827
0.000162459
0.000543995
0.000652305
0.000364363
0.000402064
0.000172908
0.000210475
0.000170589
0.000189811
0.000765981
0.000625785
0.00074261
0.000608638
0.000220036
0.000176667
0.000218587
0.000175719
0.000217969
0.000164423
0.000214763
0.000163765
0.00014448
0.000141627
0.000145164
0.000142472
0.000160237
0.000160234
0.000159766
0.000159763
0.000141487
0.000141487
0.000142338
0.000142338
0.000164396
0.000217797
0.000163741
0.000214615
0.000141626
0.000144469
0.000142471
0.000145154
0.000625515
0.000766236
0.000608398
0.000742825
0.00017664
0.000220052
0.000175695
0.000218602
0.00077107
0.000630007
0.000770953
0.00062978
0.000219724
0.00017699
0.000219965
0.000176901
0.00021868
0.000164394
0.000218683
0.000164529
0.000144356
0.000141497
0.000144373
0.000141492
0.00016028
0.000160278
0.000160288
0.000160285
0.000141358
0.000141358
0.000141351
0.000141351
0.000164366
0.000218501
0.000164502
0.000218504
0.000141495
0.000144345
0.000141491
0.000144362
0.000629711
0.000771337
0.000629503
0.000771215
0.000176962
0.00021974
0.000176873
0.000219982
0.000770421
0.000629852
0.000771101
0.000630251
0.000219549
0.000176985
0.000219655
0.000177025
0.000218577
0.000164453
0.000218687
0.000164442
0.000144333
0.000141467
0.000144343
0.000141478
0.000160271
0.000160269
0.000160274
0.000160271
0.000141332
0.000141332
0.00014134
0.00014134
0.000164425
0.000218398
0.000164415
0.000218508
0.000141466
0.000144321
0.000141477
0.000144332
0.000629575
0.000770686
0.00062997
0.000771365
0.000176959
0.000219566
0.000176997
0.000219672
0.000769445
0.000629284
0.000770241
0.000629794
0.000219375
0.000176878
0.000219488
0.000176955
0.000218405
0.000164339
0.000218538
0.000164471
0.000144305
0.00014146
0.000144317
0.000141454
0.000160261
0.000160259
0.000160268
0.000160266
0.000141328
0.000141328
0.000141318
0.000141318
0.000164312
0.000218227
0.000164443
0.00021836
0.000141459
0.000144294
0.000141453
0.000144306
0.000629009
0.000769711
0.000629518
0.000770507
0.000176851
0.000219392
0.000176928
0.000219505
0.000768314
0.000628587
0.000769184
0.00062915
0.000219186
0.000176733
0.000219306
0.000176823
0.000218213
0.000164403
0.000218353
0.00016439
0.000144272
0.000141431
0.000144287
0.000141441
0.000160259
0.000160256
0.000160259
0.000160256
0.000141297
0.000141297
0.000141308
0.000141308
0.000164376
0.000218036
0.000164363
0.000218175
0.00014143
0.000144261
0.00014144
0.000144276
0.000628313
0.000768581
0.000628874
0.000769451
0.000176707
0.000219204
0.000176796
0.000219323
0.000767106
0.000627845
0.000768022
0.000628427
0.000218993
0.000176579
0.000219116
0.000176674
0.000218006
0.000164289
0.000218156
0.000164422
0.000144236
0.000141405
0.000144252
0.000141415
0.000160249
0.000160246
0.000160256
0.000160253
0.000141273
0.000141273
0.000141281
0.000141281
0.000164262
0.000217831
0.000164395
0.00021798
0.000141404
0.000144225
0.000141414
0.000144242
0.000627574
0.000767377
0.000628154
0.00076829
0.000176553
0.000219012
0.000176648
0.000219135
0.000765827
0.000627078
0.000766789
0.000627676
0.000218794
0.00017642
0.00021892
0.000176516
0.000217801
0.000164352
0.000217948
0.00016434
0.000144195
0.000141377
0.000144214
0.000141388
0.000160245
0.000160243
0.000160246
0.000160243
0.000141245
0.000141245
0.000141256
0.000141256
0.000164325
0.000217626
0.000164312
0.000217773
0.000141376
0.000144184
0.000141387
0.000144203
0.000626807
0.000766097
0.000627405
0.00076706
0.000176394
0.000218813
0.000176491
0.000218939
0.000764473
0.000626288
0.000765484
0.000626902
0.000218588
0.000176262
0.000218719
0.000176357
0.000217587
0.000164237
0.000217742
0.000164371
0.00014415
0.000141343
0.000144171
0.000141357
0.000160233
0.000160231
0.000160241
0.000160239
0.000141212
0.000141212
0.000141225
0.000141225
0.00016421
0.000217411
0.000164343
0.000217566
0.000141342
0.000144139
0.000141356
0.00014416
0.000626016
0.000764739
0.00062663
0.000765752
0.000176235
0.000218606
0.000176331
0.000218737
0.00076303
0.000625461
0.000764098
0.0006261
0.000218374
0.000176111
0.00021851
0.000176201
0.000217374
0.000164297
0.000217527
0.000164286
0.0001441
0.000141304
0.000144124
0.00014132
0.000160228
0.000160225
0.000160229
0.000160227
0.000141173
0.000141173
0.000141188
0.000141188
0.00016427
0.000217197
0.000164259
0.000217351
0.000141302
0.000144089
0.000141318
0.000144113
0.000625185
0.00076329
0.000625826
0.000764362
0.000176084
0.000218392
0.000176175
0.000218528
0.000761483
0.000624583
0.000762613
0.000625251
0.000218151
0.000175967
0.000218292
0.000176056
0.00021715
0.000164182
0.000217312
0.000164315
0.000144043
0.000141257
0.00014407
0.000141277
0.000160214
0.000160212
0.000160223
0.00016022
0.000141127
0.000141127
0.000141146
0.000141146
0.000164154
0.000216974
0.000164287
0.000217135
0.000141256
0.000144032
0.000141276
0.000144059
0.000624305
0.000761739
0.000624974
0.000762871
0.00017594
0.000218168
0.000176029
0.00021831
0.000759814
0.000623653
0.000761015
0.000624353
0.000217914
0.000175813
0.000218063
0.000175908
0.000216926
0.000164256
0.000217086
0.000164231
0.000143979
0.000141205
0.00014401
0.000141227
0.000160208
0.000160206
0.000160209
0.000160207
0.000141075
0.000141075
0.000141097
0.000141097
0.000164229
0.00021675
0.000164204
0.000216909
0.000141204
0.000143968
0.000141226
0.000143999
0.000623375
0.000760069
0.000624074
0.00076127
0.000175786
0.00021793
0.000175881
0.00021808
0.000758015
0.00062267
0.000759288
0.000623401
0.000217662
0.00017565
0.000217819
0.00017575
0.000216691
0.000164249
0.000216857
0.000164264
0.000143907
0.000141144
0.000143942
0.00014117
0.000160198
0.000160195
0.000160202
0.0001602
0.000141014
0.000141014
0.00014104
0.00014104
0.000164222
0.000216515
0.000164237
0.000216681
0.000141143
0.000143896
0.000141169
0.000143931
0.000622393
0.000758268
0.000623123
0.000759542
0.000175622
0.000217678
0.000175722
0.000217835
0.00075608
0.000621634
0.000757427
0.000622396
0.000217395
0.000175475
0.00021756
0.000175581
0.000216447
0.000164223
0.000216619
0.000164241
0.000143826
0.000141074
0.000143865
0.000141105
0.000160184
0.000160182
0.000160189
0.000160187
0.000140945
0.000140945
0.000140975
0.000140975
0.000164196
0.000216272
0.000164213
0.000216443
0.000141073
0.000143815
0.000141104
0.000143854
0.000621358
0.000756332
0.000622119
0.00075768
0.000175448
0.000217411
0.000175554
0.000217577
0.000754
0.000620543
0.000755428
0.000621338
0.000217113
0.00017529
0.000217287
0.000175402
0.000216196
0.000164191
0.000216372
0.000164211
0.000143735
0.000140995
0.000143779
0.00014103
0.000160169
0.000160166
0.000160175
0.000160172
0.000140866
0.000140866
0.000140901
0.000140901
0.000164164
0.000216021
0.000164184
0.000216197
0.000140994
0.000143724
0.000141029
0.000143768
0.000620267
0.000754252
0.000621062
0.00075568
0.000175263
0.000217129
0.000175375
0.000217303
0.000751767
0.000619392
0.000753278
0.000620222
0.000216813
0.000175093
0.000216997
0.000175212
0.000215936
0.000164157
0.000216118
0.000164178
0.000143634
0.000140905
0.000143683
0.000140946
0.000160151
0.000160149
0.000160158
0.000160156
0.000140777
0.000140777
0.000140817
0.000140817
0.00016413
0.000215763
0.000164151
0.000215944
0.000140904
0.000143623
0.000140945
0.000143672
0.000619117
0.000752017
0.000619947
0.000753529
0.000175067
0.000216829
0.000175185
0.000217013
0.000749369
0.000618177
0.000750969
0.000619046
0.000216496
0.000174884
0.000216689
0.000175009
0.000215668
0.00016412
0.000215855
0.000164143
0.000143521
0.000140804
0.000143576
0.00014085
0.000160132
0.00016013
0.00016014
0.000160138
0.000140676
0.000140676
0.000140722
0.000140722
0.000164094
0.000215495
0.000164116
0.000215682
0.000140803
0.00014351
0.000140849
0.000143565
0.000617904
0.000749619
0.000618772
0.00075122
0.000174857
0.000216512
0.000174982
0.000216705
0.000746801
0.000616897
0.000748492
0.000617806
0.00021616
0.00017466
0.000216363
0.000174793
0.00021539
0.000164082
0.000215583
0.000164105
0.000143396
0.000140691
0.000143457
0.000140743
0.000160112
0.000160109
0.00016012
0.000160118
0.000140563
0.000140563
0.000140615
0.000140615
0.000164055
0.000215218
0.000164078
0.000215411
0.00014069
0.000143385
0.000140742
0.000143446
0.000616625
0.000747049
0.000617533
0.000748742
0.000174634
0.000216175
0.000174766
0.000216379
0.000744054
0.000615547
0.00074584
0.000616498
0.000215804
0.000174422
0.000216017
0.000174563
0.000215102
0.000164041
0.000215301
0.000164065
0.000143258
0.000140565
0.000143325
0.000140623
0.000160089
0.000160087
0.000160099
0.000160096
0.000140438
0.000140438
0.000140496
0.000140496
0.000164014
0.000214931
0.000164038
0.00021513
0.000140563
0.000143247
0.000140622
0.000143315
0.000615277
0.000744301
0.000616226
0.000746088
0.000174396
0.000215819
0.000174536
0.000216033
0.000741128
0.000614128
0.000743009
0.00061512
0.000215428
0.000174169
0.000215652
0.000174317
0.000214805
0.000163997
0.00021501
0.000164023
0.000143106
0.000140424
0.00014318
0.00014049
0.000160065
0.000160062
0.000160075
0.000160073
0.000140298
0.000140298
0.000140363
0.000140363
0.000163971
0.000214635
0.000163996
0.000214839
0.000140423
0.000143095
0.000140489
0.00014317
0.000613859
0.000741373
0.000614851
0.000743255
0.000174143
0.000215443
0.000174291
0.000215667
0.00073802
0.000612639
0.000739996
0.000613674
0.000215032
0.000173899
0.000215266
0.000174056
0.000214498
0.000163952
0.000214709
0.000163979
0.000142939
0.00014027
0.000143021
0.000140342
0.000160038
0.000160036
0.00016005
0.000160047
0.000140144
0.000140144
0.000140216
0.000140216
0.000163926
0.000214329
0.000163952
0.000214539
0.000140269
0.000142929
0.000140341
0.00014301
0.000612371
0.000738264
0.000613405
0.000740241
0.000173873
0.000215047
0.00017403
0.000215282
0.000734735
0.000611081
0.000736803
0.000612157
0.000214616
0.000173614
0.000214861
0.000173779
0.00021418
0.000163904
0.000214398
0.000163932
0.000142757
0.0001401
0.000142846
0.00014018
0.00016001
0.000160008
0.000160022
0.00016002
0.000139975
0.000139974
0.000140054
0.000140054
0.000163878
0.000214013
0.000163906
0.000214229
0.000140099
0.000142747
0.000140179
0.000142836
0.000610816
0.000734977
0.000611891
0.000737046
0.000173588
0.000214632
0.000173753
0.000214876
0.00073128
0.00060946
0.000733436
0.000610573
0.000214182
0.000173311
0.000214437
0.000173486
0.000213854
0.000163855
0.000214077
0.000163883
0.000142559
0.000139914
0.000142656
0.000140002
0.000159981
0.000159978
0.000159994
0.000159991
0.000139789
0.000139789
0.000139877
0.000139877
0.000163828
0.000213688
0.000163857
0.00021391
0.000139913
0.000142549
0.000140001
0.000142646
0.000609196
0.000731521
0.000610308
0.000733677
0.000173286
0.000214197
0.00017346
0.000214452
0.000727667
0.000607778
0.000729903
0.000608925
0.000213731
0.000172993
0.000213994
0.000173175
0.00021352
0.000163803
0.000213747
0.000163833
0.000142345
0.000139712
0.00014245
0.000139808
0.000159949
0.000159947
0.000159963
0.000159961
0.000139588
0.000139588
0.000139683
0.000139683
0.000163777
0.000213355
0.000163807
0.000213581
0.000139711
0.000142335
0.000139807
0.00014244
0.000607517
0.000727905
0.000608661
0.000730143
0.000172967
0.000213746
0.00017315
0.000214009
0.00072391
0.000606045
0.000726218
0.000607219
0.000213264
0.000172658
0.000213535
0.000172849
0.000213178
0.00016375
0.000213409
0.00016378
0.000142115
0.000139493
0.000142228
0.000139597
0.000159917
0.000159914
0.000159931
0.000159929
0.00013937
0.00013937
0.000139473
0.000139473
0.000163724
0.000213014
0.000163754
0.000213245
0.000139492
0.000142104
0.000139596
0.000142217
0.000605785
0.000724147
0.000606958
0.000726456
0.000172632
0.000213279
0.000172823
0.00021355
0.000720031
0.000604268
0.0007224
0.000605464
0.000212785
0.000172307
0.000213062
0.000172506
0.00021283
0.000163696
0.000213065
0.000163726
0.000141868
0.000139258
0.000141989
0.00013937
0.000159883
0.000159881
0.000159898
0.000159895
0.000139135
0.000139135
0.000139246
0.000139246
0.00016367
0.000212668
0.000163701
0.000212902
0.000139257
0.000141857
0.000139369
0.000141978
0.00060401
0.000720266
0.000605205
0.000722636
0.000172282
0.000212799
0.000172481
0.000213076
0.000716054
0.000602457
0.00071847
0.000603671
0.000212295
0.000171941
0.000212577
0.000172148
0.000212479
0.00016364
0.000212716
0.000163671
0.000141604
0.000139006
0.000141733
0.000139126
0.000159849
0.000159846
0.000159863
0.000159861
0.000138883
0.000138883
0.000139003
0.000139003
0.000163614
0.000212318
0.000163646
0.000212554
0.000139005
0.000141594
0.000139125
0.000141723
0.000602202
0.000716286
0.000603414
0.000718704
0.000171917
0.000212309
0.000172123
0.000212591
0.000712007
0.000600625
0.000714456
0.000601849
0.000211798
0.000171562
0.000212084
0.000171775
0.000212125
0.000163583
0.000212364
0.000163615
0.000141324
0.000138737
0.000141461
0.000138865
0.000159813
0.000159811
0.000159828
0.000159826
0.000138616
0.000138616
0.000138743
0.000138743
0.000163558
0.000211966
0.00016359
0.000212203
0.000138736
0.000141314
0.000138864
0.000141451
0.000600372
0.000712237
0.000601594
0.000714687
0.000171537
0.000211812
0.000171751
0.000212098
0.000707922
0.000598785
0.000710386
0.000600011
0.000211299
0.00017117
0.000211585
0.00017139
0.000211771
0.000163526
0.00021201
0.000163558
0.000141029
0.000138453
0.000141173
0.000138589
0.000159777
0.000159774
0.000159792
0.00015979
0.000138332
0.000138332
0.000138467
0.000138467
0.000163501
0.000211613
0.000163533
0.000211851
0.000138452
0.000141019
0.000138587
0.000141163
0.000598534
0.00070815
0.000599758
0.000710616
0.000171146
0.000211313
0.000171365
0.000211599
0.000703832
0.000596951
0.000706295
0.00059817
0.0002108
0.000170768
0.000211086
0.000170992
0.000211418
0.000163469
0.000211657
0.000163501
0.000140719
0.000138153
0.00014087
0.000138296
0.000159739
0.000159737
0.000159755
0.000159753
0.000138033
0.000138033
0.000138175
0.000138175
0.000163444
0.000211261
0.000163476
0.000211499
0.000138152
0.000140709
0.000138295
0.00014086
0.000596702
0.000704058
0.00059792
0.000706522
0.000170744
0.000210814
0.000170968
0.0002111
0.000699774
0.000595137
0.000702217
0.000596342
0.000210307
0.000170356
0.000210589
0.000170585
0.000211069
0.000163411
0.000211306
0.000163443
0.000140395
0.00013784
0.000140553
0.000137989
0.0001597
0.000159698
0.000159717
0.000159715
0.00013772
0.00013772
0.000137869
0.000137869
0.000163386
0.000210914
0.000163418
0.000211149
0.000137839
0.000140385
0.000137988
0.000140543
0.00059489
0.000699998
0.000596094
0.000702442
0.000170332
0.00021032
0.000170561
0.000210603
0.000695784
0.000593359
0.000698188
0.000594543
0.000209822
0.000169938
0.0002101
0.00017017
0.000210728
0.000163353
0.000210961
0.000163385
0.000140058
0.000137512
0.000140222
0.000137668
0.000159661
0.000159659
0.000159678
0.000159675
0.000137393
0.000137393
0.000137548
0.000137548
0.000163328
0.000210574
0.00016336
0.000210806
0.000137511
0.000140048
0.000137667
0.000140212
0.000593115
0.000696006
0.000594297
0.000698412
0.000169914
0.000209835
0.000170146
0.000210113
0.000691899
0.000591633
0.000694246
0.000592788
0.000209351
0.000169514
0.000209621
0.000169748
0.000210392
0.000163294
0.000210625
0.000163327
0.000139709
0.000137173
0.000139878
0.000137334
0.000159621
0.000159619
0.000159638
0.000159636
0.000137054
0.000137054
0.000137215
0.000137215
0.00016327
0.000210239
0.000163302
0.000210471
0.000137172
0.000139699
0.000137333
0.000139869
0.00059139
0.000692118
0.000592544
0.000694467
0.000169491
0.000209364
0.000169725
0.000209635
0.000688152
0.000589972
0.000690426
0.00059109
0.000208897
0.000169088
0.000209159
0.000169323
0.000210071
0.000163237
0.000210293
0.000163269
0.00013935
0.000136823
0.000139524
0.000136989
0.00015958
0.000159578
0.000159598
0.000159595
0.000136704
0.000136704
0.00013687
0.00013687
0.000163213
0.000209919
0.000163244
0.000210141
0.000136822
0.000139341
0.000136988
0.000139514
0.000589732
0.00068837
0.000590849
0.000690645
0.000169065
0.00020891
0.0001693
0.000209171
0.000684579
0.000588391
0.000686763
0.000589465
0.000208464
0.000168661
0.000208715
0.000168896
0.000209766
0.00016318
0.000209978
0.000163212
0.000138983
0.000136463
0.000139161
0.000136633
0.00015954
0.000159538
0.000159557
0.000159555
0.000136345
0.000136345
0.000136515
0.000136515
0.000163156
0.000209615
0.000163187
0.000209827
0.000136462
0.000138973
0.000136632
0.000139151
0.000588152
0.000684795
0.000589225
0.00068698
0.000168638
0.000208477
0.000168873
0.000208727
0.000681208
0.000586901
0.000683287
0.000587925
0.000208055
0.000168235
0.000208294
0.00016847
0.000209476
0.000163123
0.00020968
0.000163154
0.000138608
0.000136095
0.000138789
0.000136269
0.000159499
0.000159497
0.000159516
0.000159514
0.000135978
0.000135978
0.000136151
0.000136151
0.000163099
0.000209327
0.00016313
0.00020953
0.000136094
0.000138599
0.000136268
0.00013878
0.000586665
0.000681422
0.000587688
0.000683502
0.000168213
0.000208068
0.000168447
0.000208306
0.000678074
0.000585525
0.000680025
0.000586485
0.000207674
0.000167814
0.000207898
0.000168046
0.000209204
0.000163066
0.000209398
0.000163098
0.000138228
0.000135721
0.000138411
0.000135898
0.000159458
0.000159456
0.000159475
0.000159473
0.000135604
0.000135604
0.00013578
0.00013578
0.000163042
0.000209055
0.000163074
0.000209249
0.00013572
0.000138219
0.000135897
0.000138402
0.00058529
0.000678286
0.00058625
0.000680238
0.000167791
0.000207686
0.000168023
0.00020791
0.000675175
0.000584147
0.000677022
0.000585155
0.000207325
0.000167395
0.000207531
0.000167627
0.000208944
0.000163011
0.000209134
0.000163042
0.000137844
0.000135343
0.000138029
0.000135521
0.000159418
0.000159416
0.000159434
0.000159432
0.000135226
0.000135226
0.000135404
0.000135404
0.000162987
0.000208797
0.000163018
0.000208986
0.000135342
0.000137835
0.00013552
0.000138019
0.000583914
0.000675385
0.000584921
0.000677234
0.000167373
0.000207337
0.000167604
0.000207543
0.000667963
0.00057658
0.000673854
0.000582825
0.000206832
0.000166634
0.000207188
0.000167176
0.000207887
0.000162941
0.000208738
0.000162985
0.000137427
0.000134949
0.000137642
0.000135141
0.0001594
0.000159398
0.000159395
0.000159393
0.000134833
0.000134833
0.000135025
0.000135025
0.000162918
0.000207745
0.000162961
0.000208592
0.000134948
0.000137418
0.00013514
0.000137633
0.000576353
0.000668163
0.000582594
0.000674063
0.000166612
0.000206844
0.000167154
0.0002072
0.000719355
0.000596877
0.000428346
0.000382281
0.000713724
0.000590793
0.000429316
0.000377451
0.000208945
0.000161166
0.000181553
0.000158879
0.000208013
0.000161125
0.000181022
0.000158884
0.000157513
0.000157511
0.00015777
0.00015777
0.000157519
0.000157517
0.000157801
0.000157801
0.000161147
0.000208834
0.000158876
0.000181518
0.000161106
0.000207907
0.000158881
0.000180988
0.000596672
0.000719545
0.000382251
0.000428378
0.000590596
0.000713905
0.000377421
0.000429346
0.000856418
0.000694308
0.000827348
0.000674155
0.000846443
0.000687099
0.000818608
0.000667439
0.000231161
0.000165321
0.000226898
0.00016455
0.000229926
0.000165276
0.00022577
0.00016451
0.000160404
0.000160401
0.000159866
0.000159864
0.00016042
0.000160417
0.000159881
0.000159879
0.000165286
0.000230924
0.000164519
0.000226695
0.000165242
0.000229699
0.00016448
0.000225574
0.000693946
0.000856751
0.000673838
0.000827641
0.000686755
0.000846762
0.000667134
0.000818888
0.000863284
0.000698952
0.000863111
0.000698871
0.00085191
0.000691106
0.000851773
0.000690755
0.000232002
0.000165306
0.000232036
0.000165449
0.000230658
0.000165255
0.000230699
0.0001654
0.000160459
0.000160456
0.000160467
0.000160463
0.000160475
0.000160472
0.000160482
0.000160479
0.00016527
0.000231756
0.000165413
0.000231792
0.00016522
0.000230418
0.000165365
0.000230464
0.000698576
0.000863639
0.000698497
0.000863454
0.000690728
0.000852237
0.0006904
0.000852103
0.000863165
0.000698869
0.00086385
0.000699347
0.00085225
0.000691348
0.000852763
0.000691737
0.000231892
0.000165364
0.000232037
0.000165358
0.000230596
0.000165318
0.000230721
0.000165312
0.000160456
0.000160453
0.000160457
0.000160454
0.000160472
0.000160469
0.000160473
0.00016047
0.000165329
0.000231648
0.000165323
0.000231792
0.000165284
0.000230361
0.000165277
0.000230483
0.000698497
0.000863518
0.000698971
0.000864201
0.00069099
0.000852587
0.000691369
0.000853098
0.000862144
0.000698201
0.000863089
0.000698838
0.000851292
0.000690745
0.000852199
0.000691349
0.000231667
0.000165253
0.000231845
0.000165386
0.000230396
0.000165207
0.000230563
0.000165341
0.00016045
0.000160447
0.000160456
0.000160453
0.000160466
0.000160463
0.000160472
0.000160469
0.000165217
0.000231422
0.000165351
0.0002316
0.000165173
0.000230161
0.000165307
0.000230327
0.000697827
0.000862493
0.000698465
0.000863441
0.000690389
0.000851629
0.000690993
0.000852538
0.000860845
0.000697372
0.000861901
0.00069807
0.00085002
0.000689942
0.000851051
0.000690621
0.000231418
0.000165315
0.000231602
0.000165307
0.000230157
0.00016527
0.000230336
0.000165262
0.000160452
0.000160449
0.000160451
0.000160448
0.000160468
0.000160465
0.000160467
0.000160464
0.00016528
0.000231174
0.000165271
0.000231357
0.000165236
0.000229921
0.000165227
0.0002301
0.000696999
0.000861194
0.000697695
0.000862251
0.000689586
0.000850355
0.000690264
0.000851387
0.000859446
0.000696496
0.000860548
0.000697211
0.000848621
0.00068907
0.000849711
0.000689774
0.000231166
0.000165205
0.000231353
0.000165338
0.000229904
0.000165159
0.000230091
0.000165293
0.000160446
0.000160443
0.000160452
0.000160449
0.000160462
0.000160459
0.000160468
0.000160465
0.000165169
0.000230922
0.000165304
0.000231109
0.000165125
0.00022967
0.000165259
0.000229855
0.000696122
0.000859793
0.000696838
0.000860897
0.000688715
0.000848957
0.000689417
0.000850047
0.000857974
0.000695599
0.000859122
0.000696329
0.000847141
0.000688169
0.000848283
0.000688892
0.000230919
0.000165269
0.000231102
0.00016526
0.000229656
0.000165224
0.000229839
0.000165214
0.000160448
0.000160446
0.000160447
0.000160444
0.000160465
0.000160462
0.000160463
0.00016046
0.000165234
0.000230676
0.000165224
0.000230858
0.000165189
0.000229423
0.00016518
0.000229605
0.000695226
0.000858321
0.000695955
0.000859469
0.000687816
0.000847479
0.000688538
0.00084862
0.000856437
0.00069469
0.000857627
0.000695429
0.000845592
0.000687242
0.00084678
0.000687982
0.00023067
0.000165159
0.000230857
0.000165292
0.000229405
0.000165114
0.000229592
0.000165247
0.000160443
0.00016044
0.000160448
0.000160446
0.000160459
0.000160457
0.000160465
0.000160462
0.000165124
0.000230427
0.000165258
0.000230614
0.000165079
0.000229172
0.000165212
0.000229358
0.000694317
0.000856781
0.000695056
0.000857974
0.000686889
0.000845927
0.000687628
0.000847117
0.000854818
0.000693764
0.000856064
0.000694517
0.000843964
0.000686292
0.000845205
0.000687046
0.000230427
0.000165223
0.00023061
0.000165215
0.000229161
0.000165178
0.000229343
0.000165169
0.000160445
0.000160442
0.000160444
0.000160441
0.000160462
0.000160459
0.00016046
0.000160457
0.000165189
0.000230184
0.000165179
0.000230367
0.000165143
0.000228927
0.000165134
0.00022911
0.00069339
0.000855159
0.000694143
0.000856408
0.000685936
0.000844293
0.000686691
0.000845538
0.000853099
0.000692811
0.000854413
0.000693583
0.000842237
0.000685316
0.000843545
0.000686088
0.000230177
0.000165115
0.000230367
0.000165247
0.000228911
0.00016507
0.000229099
0.000165202
0.000160441
0.000160438
0.000160445
0.000160442
0.000160457
0.000160454
0.000160461
0.000160458
0.00016508
0.000229935
0.000165213
0.000230124
0.000165035
0.000228678
0.000165167
0.000228865
0.000692438
0.000853442
0.000693209
0.000854755
0.000684959
0.000842564
0.000685731
0.000843873
0.000851273
0.000691827
0.000852658
0.00069262
0.000840394
0.000684305
0.000841777
0.000685101
0.000229929
0.000165178
0.000230117
0.000165171
0.000228663
0.000165134
0.000228849
0.000165125
0.000160443
0.00016044
0.000160441
0.000160438
0.000160459
0.000160456
0.000160457
0.000160454
0.000165143
0.000229689
0.000165135
0.000229876
0.0001651
0.000228431
0.000165091
0.000228616
0.000691457
0.000851615
0.000692248
0.000853001
0.00068395
0.000840721
0.000684744
0.000842105
0.000849324
0.000690808
0.000850789
0.000691623
0.000838423
0.000683255
0.000839885
0.000684075
0.000229675
0.000165072
0.000229869
0.000165201
0.000228407
0.000165032
0.000228599
0.000165157
0.000160438
0.000160435
0.000160442
0.000160439
0.000160455
0.000160452
0.000160459
0.000160456
0.000165037
0.000229435
0.000165167
0.000229628
0.000164997
0.000228176
0.000165122
0.000228368
0.000690439
0.000849666
0.000691253
0.000851132
0.000682902
0.00083875
0.00068372
0.000840213
0.000847251
0.000689756
0.000848794
0.000690591
0.000836322
0.000682168
0.000837859
0.00068301
0.000229424
0.000165136
0.000229614
0.000165128
0.000228155
0.000165112
0.000228343
0.000165087
0.00016044
0.000160438
0.000160439
0.000160436
0.000160459
0.000160456
0.000160456
0.000160453
0.000165101
0.000229185
0.000165093
0.000229375
0.000165078
0.000227925
0.000165052
0.000228113
0.000689388
0.000847592
0.000690222
0.000849136
0.000681815
0.000836648
0.000682656
0.000838186
0.000845046
0.000688668
0.000846666
0.000689525
0.000834082
0.000681039
0.000835697
0.000681906
0.000229172
0.000165154
0.000229362
0.00016515
0.000227899
0.000165121
0.00022809
0.000165127
0.000160443
0.00016044
0.00016044
0.000160437
0.000160461
0.000160458
0.000160459
0.000160456
0.000165119
0.000228934
0.000165115
0.000229123
0.000165087
0.000227669
0.000165093
0.00022786
0.000688301
0.000845386
0.000689157
0.000847007
0.000680688
0.000834407
0.000681554
0.000836023
0.000842699
0.000687543
0.000844399
0.000688422
0.000831694
0.000679869
0.000833391
0.00068076
0.000228917
0.000165154
0.00022911
0.000165163
0.000227639
0.000165109
0.000227833
0.000165122
0.000160445
0.000160442
0.000160443
0.00016044
0.000160462
0.000160459
0.00016046
0.000160457
0.00016512
0.00022868
0.000165129
0.000228872
0.000165075
0.000227411
0.000165088
0.000227604
0.000687178
0.000843038
0.000688056
0.000844739
0.000679519
0.000832018
0.00068041
0.000833716
0.000840201
0.000686378
0.000841985
0.000687282
0.000829148
0.000678653
0.000830932
0.000679571
0.00022866
0.000165139
0.000228854
0.000165153
0.000227376
0.000165092
0.000227572
0.000165106
0.000160445
0.000160442
0.000160444
0.000160441
0.000160461
0.000160458
0.00016046
0.000160457
0.000165104
0.000228424
0.000165118
0.000228618
0.000165058
0.000227148
0.000165073
0.000227344
0.000686014
0.000840539
0.000686917
0.000842324
0.000678304
0.00082947
0.000679222
0.000831256
0.000837542
0.00068517
0.000839414
0.000686099
0.000826435
0.000677388
0.00082831
0.000678335
0.0002284
0.000165122
0.000228597
0.000165136
0.000227109
0.000165074
0.000227308
0.000165088
0.000160445
0.000160442
0.000160443
0.00016044
0.000160461
0.000160458
0.00016046
0.000160457
0.000165087
0.000228165
0.000165102
0.000228361
0.00016504
0.000226883
0.000165055
0.000227081
0.000684808
0.000837878
0.000685736
0.000839752
0.000677041
0.000826756
0.000677987
0.000828632
0.000834714
0.000683915
0.000836677
0.000684872
0.000823548
0.000676071
0.000825517
0.000677048
0.000228138
0.000165105
0.000228337
0.000165119
0.000226839
0.000165056
0.00022704
0.000165071
0.000160445
0.000160442
0.000160443
0.00016044
0.000160461
0.000160458
0.00016046
0.000160457
0.000165071
0.000227904
0.000165085
0.000228102
0.000165023
0.000226614
0.000165037
0.000226814
0.000683555
0.000835049
0.00068451
0.000837013
0.000675725
0.000823868
0.000676702
0.000825838
0.000831717
0.000682615
0.00083377
0.000683598
0.000820485
0.000674702
0.000822548
0.00067571
0.000227875
0.000165089
0.000228075
0.000165103
0.000226566
0.000165039
0.000226769
0.000165053
0.000160445
0.000160442
0.000160444
0.000160441
0.000160462
0.000160459
0.00016046
0.000160457
0.000165055
0.000227642
0.000165068
0.000227841
0.000165006
0.000226342
0.00016502
0.000226544
0.000682257
0.00083205
0.000683238
0.000834105
0.000674359
0.000820803
0.000675365
0.000822867
0.000828547
0.000681269
0.000830693
0.000682279
0.000817244
0.000673282
0.000819402
0.00067432
0.00022761
0.000165073
0.000227811
0.000165087
0.000226289
0.000165023
0.000226494
0.000165036
0.000160446
0.000160443
0.000160444
0.000160441
0.000160463
0.00016046
0.000160461
0.000160458
0.000165039
0.000227378
0.000165053
0.000227579
0.000164989
0.000226066
0.000165003
0.00022627
0.000680912
0.000828879
0.000681921
0.000831026
0.000672941
0.000817561
0.000673977
0.000819719
0.000825207
0.000679877
0.000827442
0.000680914
0.000813827
0.000671811
0.000816077
0.000672878
0.000227343
0.000165058
0.000227546
0.000165071
0.000226008
0.000165006
0.000226216
0.00016502
0.000160448
0.000160445
0.000160445
0.000160443
0.000160464
0.000160462
0.000160462
0.000160459
0.000165024
0.000227112
0.000165037
0.000227314
0.000164973
0.000225787
0.000164987
0.000225993
0.000679522
0.000825537
0.000680557
0.000827774
0.000671471
0.000814142
0.000672537
0.000816393
0.000821712
0.000678453
0.000824023
0.000679505
0.000810241
0.000670292
0.000812578
0.000671386
0.000227074
0.000165043
0.000227278
0.000165056
0.000225725
0.000164991
0.000225935
0.000165004
0.00016045
0.000160447
0.000160447
0.000160445
0.000160467
0.000160464
0.000160464
0.000160461
0.000165009
0.000226845