/*--------------------------------*- C++ -*----------------------------------*\
  =========                 |
  \\      /  F ield         | OpenFOAM: The Open Source CFD Toolbox
   \\    /   O peration     | Website:  https://openfoam.org
    \\  /    A nd           | Version:  9
     \\/     M anipulation  |
\*---------------------------------------------------------------------------*/
FoamFile
{
    format      ascii;
    class       surfaceScalarField;
    location    "0.4";
    object      phi;
}
// * * * * * * * * * * * * * * * * * * * * * * * * * * * * * * * * * * * * * //

dimensions      [0 3 -1 0 0 0 0];

internalField   nonuniform List<scalar> 
104044
(
1.40576e-07
-6.44264e-05
5.39229e-07
6.37163e-05
3.02843e-08
-5.74508e-05
-1.30478e-06
-5.30005e-08
5.87624e-05
1.86791e-07
7.76193e-08
-1.86083e-08
1.3805e-07
-1.60065e-06
-3.09229e-08
-4.35576e-08
8.19413e-08
-5.9422e-05
5.98793e-05
-6.01066e-05
-3.4313e-08
5.89181e-05
6.96427e-08
-3.47032e-08
-2.87745e-09
-6.10939e-05
-3.38676e-07
6.12932e-05
8.92077e-08
-6.11991e-05
-2.25967e-07
-2.29713e-10
6.13876e-05
3.48068e-08
-1.14925e-09
-8.96391e-07
7.77978e-08
-8.43428e-07
-5.86555e-11
6.90592e-08
-2.67336e-09
-6.02086e-05
5.98383e-05
-5.98334e-05
-2.48128e-10
5.9605e-05
-1.81165e-09
-1.15157e-10
-8.91648e-13
-6.11643e-05
-2.20128e-07
6.13515e-05
3.26235e-08
-6.11643e-05
-2.20128e-07
2.27868e-10
6.13515e-05
3.26233e-08
-2.08646e-13
-8.40608e-07
6.84248e-08
-8.40608e-07
5.82511e-11
6.84245e-08
-8.50434e-13
-5.9772e-05
5.95517e-05
-5.9772e-05
2.46266e-10
5.95517e-05
-1.85984e-13
1.14658e-10
2.87498e-09
-6.1199e-05
-2.25966e-07
6.13875e-05
3.48051e-08
-6.10938e-05
-3.38655e-07
5.29816e-08
6.12931e-05
8.91846e-08
1.14904e-09
-8.43428e-07
6.90571e-08
-8.96381e-07
3.09193e-08
7.77826e-08
2.67088e-09
-5.98333e-05
5.96049e-05
-6.02085e-05
3.43213e-08
5.98382e-05
1.81094e-09
3.47051e-08
-1.40574e-07
-5.7451e-05
-1.30483e-06
5.87625e-05
1.86834e-07
-6.44265e-05
5.39219e-07
6.37164e-05
3.0307e-08
-7.76199e-08
-1.60057e-06
-4.36086e-08
-1.85717e-08
1.38022e-07
-8.19437e-08
-6.01071e-05
5.89186e-05
-5.94223e-05
5.98795e-05
-6.96426e-08
1.07932e-07
-6.30459e-05
2.90004e-07
6.25941e-05
5.39176e-08
-5.94864e-05
-1.73923e-07
-3.0956e-08
5.98771e-05
-7.79235e-08
1.26622e-07
5.16754e-07
2.70334e-08
-6.4036e-07
-4.22587e-08
8.52106e-08
4.19552e-08
-6.0337e-05
6.05851e-05
-5.83597e-05
-1.31537e-08
5.82408e-05
5.9082e-08
-2.28192e-08
-5.26924e-09
-6.13048e-05
-4.88858e-08
6.1252e-05
7.60202e-08
-6.13938e-05
2.44061e-08
-6.15718e-10
6.13463e-05
1.84083e-08
-4.11815e-09
-1.28063e-07
7.8381e-08
-2.80742e-08
-4.10289e-10
1.81664e-08
-3.70082e-09
-5.9691e-05
5.96327e-05
-5.95737e-05
-6.15501e-10
5.9595e-05
-3.58427e-09
-4.16075e-10
-6.11729e-12
-6.1358e-05
2.71081e-08
6.13131e-05
1.72182e-08
-6.1358e-05
2.71087e-08
6.01637e-10
6.13131e-05
1.72182e-08
-2.50671e-12
-2.38917e-08
1.70226e-08
-2.38917e-08
4.05089e-10
1.70226e-08
-4.39995e-12
-5.95274e-05
5.95539e-05
-5.95274e-05
6.06108e-10
5.95539e-05
-2.19779e-12
4.11354e-10
5.24797e-09
-6.13937e-05
2.44085e-08
6.13463e-05
1.84073e-08
-6.13047e-05
-4.88433e-08
3.09122e-08
6.12519e-05
7.59736e-08
4.11189e-09
-2.80742e-08
1.81654e-08
-1.28033e-07
4.22251e-08
7.83465e-08
3.69213e-09
-5.95737e-05
5.9595e-05
-5.96909e-05
1.31663e-08
5.96326e-05
3.57871e-09
2.283e-08
-1.07931e-07
-5.94866e-05
-1.74053e-07
5.98774e-05
-7.789e-08
-6.30459e-05
2.89626e-07
6.25943e-05
5.39803e-08
-1.26618e-07
-6.40471e-07
8.52701e-08
5.16847e-07
2.70971e-08
-4.19657e-08
-5.836e-05
5.82411e-05
-6.03373e-05
6.05849e-05
-5.90883e-08
7.23829e-08
-6.23257e-05
-6.20829e-08
6.21416e-05
1.73838e-07
-6.009e-05
9.76384e-08
-1.20562e-08
6.02282e-05
-1.51357e-07
8.82639e-08
5.59538e-08
1.24113e-07
2.5237e-08
-2.05209e-08
-1.29332e-07
1.05756e-08
-6.06155e-05
6.05428e-05
-5.82956e-05
5.10906e-09
5.83987e-05
2.5501e-08
-3.99396e-09
-5.57399e-09
-6.11811e-05
-6.24535e-08
6.11174e-05
1.19617e-07
-6.12925e-05
-6.28472e-09
-9.70542e-10
6.12417e-05
5.25293e-08
-4.88837e-09
-4.46745e-08
9.99241e-08
1.12213e-08
-7.93537e-10
3.85074e-08
-6.94524e-09
-5.95909e-05
5.95405e-05
-5.96002e-05
-9.40328e-10
5.95879e-05
-6.85612e-09
-7.97378e-10
-3.47683e-12
-6.12628e-05
-5.33629e-09
6.12163e-05
5.08005e-08
-6.12627e-05
-5.33523e-09
9.60103e-10
6.12163e-05
5.08007e-08
-9.2201e-12
1.24126e-08
3.71282e-08
1.24138e-08
7.71365e-10
3.71275e-08
-1.94613e-12
-5.95655e-05
5.95592e-05
-5.95655e-05
9.39352e-10
5.95592e-05
-5.46498e-12
7.84956e-10
5.57493e-09
-6.12925e-05
-6.28677e-09
6.12416e-05
5.25294e-08
-6.11811e-05
-6.23889e-08
1.20254e-08
6.11174e-05
1.1957e-07
4.85675e-09
1.12241e-08
3.85027e-08
-4.46174e-08
2.04655e-08
9.98564e-08
6.93688e-09
-5.96001e-05
5.95879e-05
-5.95908e-05
-5.06498e-09
5.95404e-05
6.84115e-09
4.01036e-09
-7.23805e-08
-6.00903e-05
9.75155e-08
6.02284e-05
-1.51257e-07
-6.23259e-05
-6.20546e-08
6.21418e-05
1.73854e-07
-8.82589e-08
2.51673e-08
-1.29353e-07
5.60172e-08
1.24097e-07
-1.059e-08
-5.82958e-05
5.83988e-05
-6.06155e-05
6.05428e-05
-2.55143e-08
4.48802e-08
-6.19919e-05
-1.44795e-07
6.18562e-05
2.35597e-07
-6.03271e-05
1.24653e-07
1.16472e-09
6.04011e-05
-1.55002e-07
5.70525e-08
-1.17704e-07
2.10343e-07
1.1995e-07
-4.76557e-09
-1.57009e-07
-1.52466e-08
-6.04283e-05
6.02988e-05
-5.85022e-05
1.9386e-08
5.85922e-05
-3.18978e-09
1.32877e-08
-8.09615e-09
-6.10636e-05
-8.50957e-08
6.10095e-05
1.48511e-07
-6.11941e-05
-3.72087e-08
-1.15635e-09
6.11448e-05
7.95995e-08
-8.27243e-09
-7.67983e-08
1.34121e-07
-2.52807e-08
-1.06885e-09
6.56448e-08
-5.5794e-09
-5.94829e-05
5.94228e-05
-5.95577e-05
-1.09989e-09
5.9516e-05
-5.9523e-09
-1.02643e-09
-5.85428e-12
-6.11746e-05
-3.51156e-08
6.11306e-05
7.79598e-08
-6.11745e-05
-3.51147e-08
1.14365e-09
6.11306e-05
7.79589e-08
3.38105e-12
-2.35402e-08
6.42322e-08
-2.35432e-08
1.08465e-09
6.42298e-08
-3.14994e-12
-5.95347e-05
5.94984e-05
-5.95346e-05
1.09616e-09
5.94984e-05
-9.25811e-12
1.00317e-09
8.0799e-09
-6.11941e-05
-3.72068e-08
6.11447e-05
7.95985e-08
-6.10636e-05
-8.50289e-08
-1.18716e-09
6.10095e-05
1.48447e-07
8.26787e-09
-2.52732e-08
6.56472e-08
-7.67292e-08
4.74251e-09
1.34061e-07
5.57004e-09
-5.95576e-05
5.9516e-05
-5.94829e-05
-1.93491e-08
5.94228e-05
5.94033e-09
-1.32548e-08
-4.48804e-08
-6.03273e-05
1.24617e-07
6.04013e-05
-1.54958e-07
-6.19921e-05
-1.44718e-07
6.18564e-05
2.3556e-07
-5.70501e-08
1.19933e-07
-1.56977e-07
-1.17605e-07
2.10246e-07
1.52333e-08
-5.85023e-05
5.85924e-05
-6.04284e-05
6.02989e-05
3.1767e-09
2.43916e-08
-6.173e-05
-1.69496e-07
6.16055e-05
2.69561e-07
-6.0453e-05
1.14098e-07
1.14942e-08
6.04849e-05
-1.331e-07
3.35419e-08
-1.60251e-07
2.5295e-07
1.21595e-07
5.33537e-09
-1.45227e-07
-3.45226e-08
-6.01639e-05
6.00289e-05
-5.86646e-05
2.7707e-08
5.87164e-05
-2.53665e-08
2.38234e-08
-6.20581e-09
-6.09533e-05
-9.61254e-08
6.08946e-05
1.72531e-07
-6.10917e-05
-5.31713e-08
-1.234e-09
6.10328e-05
1.07117e-07
-7.22506e-09
-8.9957e-08
1.58674e-07
-4.5178e-08
-1.19402e-09
9.22127e-08
-5.04206e-09
-5.9362e-05
5.92986e-05
-5.94667e-05
-1.20255e-09
5.94097e-05
-5.30536e-09
-1.14577e-09
-3.25336e-12
-6.10824e-05
-5.09214e-08
6.1028e-05
1.04129e-07
-6.10824e-05
-5.09216e-08
1.22927e-09
6.1028e-05
1.04129e-07
-6.24522e-12
-4.3016e-08
8.99795e-08
-4.30154e-08
1.17576e-09
8.9985e-08
-3.16087e-12
-5.94543e-05
5.94022e-05
-5.94543e-05
1.19623e-09
5.94022e-05
-3.42177e-12
1.13987e-09
6.18858e-09
-6.10917e-05
-5.31672e-08
6.10328e-05
1.07118e-07
-6.09533e-05
-9.60586e-08
-1.15242e-08
6.08946e-05
1.72471e-07
7.20659e-09
-4.51753e-08
9.22041e-08
-8.98977e-08
-5.34909e-09
1.58611e-07
5.03279e-09
-5.94666e-05
5.94096e-05
-5.93619e-05
-2.76637e-08
5.92986e-05
5.29597e-09
-2.3783e-08
-2.43932e-08
-6.04531e-05
1.14056e-07
6.0485e-05
-1.33033e-07
-6.17301e-05
-1.69429e-07
6.16057e-05
2.69521e-07
-3.3543e-08
1.21496e-07
-1.45151e-07
-1.60258e-07
2.52931e-07
3.45086e-08
-5.86647e-05
5.87166e-05
-6.0164e-05
6.00291e-05
2.5353e-08
9.13941e-09
-6.14842e-05
-1.82647e-07
6.13608e-05
2.96876e-07
-6.04966e-05
9.51658e-08
2.06641e-08
6.04922e-05
-1.02334e-07
1.60496e-08
-1.76671e-07
2.81954e-07
1.04755e-07
1.72713e-08
-1.17691e-07
-4.87401e-08
-5.9894e-05
5.97601e-05
-5.87492e-05
3.27068e-08
5.87629e-05
-4.17489e-08
3.02241e-08
-4.7954e-09
-6.08336e-05
-1.06713e-07
6.07672e-05
1.98615e-07
-6.09684e-05
-6.78944e-08
-1.29008e-09
6.08963e-05
1.36426e-07
-5.15819e-09
-1.0006e-07
1.83496e-07
-5.98627e-08
-1.25053e-09
1.20399e-07
-4.26781e-09
-5.92334e-05
5.91636e-05
-5.93464e-05
-1.2851e-09
5.92755e-05
-4.62149e-09
-1.23009e-09
-2.7531e-12
-6.09676e-05
-6.53774e-08
6.08994e-05
1.32217e-07
-6.09675e-05
-6.53777e-08
1.28402e-09
6.08994e-05
1.32218e-07
-2.71545e-12
-5.75407e-08
1.16718e-07
-5.7541e-08
1.24475e-09
1.16719e-07
-2.72427e-12
-5.93434e-05
5.92767e-05
-5.93434e-05
1.27889e-09
5.92767e-05
-2.70482e-12
1.22421e-09
4.78643e-09
-6.09683e-05
-6.78907e-08
6.08963e-05
1.3642e-07
-6.08336e-05
-1.06648e-07
-2.06812e-08
6.07672e-05
1.98556e-07
5.14909e-09
-5.98595e-08
1.20395e-07
-9.99952e-08
-1.72898e-08
1.8344e-07
4.25947e-09
-5.93464e-05
5.92755e-05
-5.92334e-05
-3.26592e-08
5.91636e-05
4.61293e-09
-3.01786e-08
-9.14119e-09
-6.04967e-05
9.51131e-08
6.04923e-05
-1.02279e-07
-6.14843e-05
-1.82619e-07
6.1361e-05
2.96844e-07
-1.60514e-08
1.04697e-07
-1.17627e-07
-1.76607e-07
2.81884e-07
4.87261e-08
-5.87494e-05
5.87631e-05
-5.98942e-05
5.97603e-05
4.17353e-08
-2.30003e-09
-6.12378e-05
-1.94242e-07
6.11105e-05
3.23877e-07
-6.04716e-05
7.52969e-08
2.45669e-08
6.0436e-05
-6.66374e-08
2.99703e-09
-1.88339e-07
3.08314e-07
8.58511e-08
2.26723e-08
-8.48551e-08
-5.91601e-08
-5.96256e-05
5.94905e-05
-5.8761e-05
3.55265e-08
5.87416e-05
-5.37947e-08
3.39798e-08
-3.95587e-09
-6.06957e-05
-1.19308e-07
6.0617e-05
2.26526e-07
-6.08179e-05
-8.33688e-08
-1.35918e-09
6.07312e-05
1.67448e-07
-4.32775e-09
-1.1155e-07
2.10023e-07
-7.47216e-08
-1.30522e-09
1.50096e-07
-3.44992e-09
-5.90899e-05
5.90095e-05
-5.91983e-05
-1.46005e-09
5.9113e-05
-3.81699e-09
-1.32802e-09
-2.89476e-12
-6.08246e-05
-8.03909e-08
6.07412e-05
1.62473e-07
-6.08246e-05
-8.03916e-08
1.35252e-09
6.07412e-05
1.62474e-07
-2.74549e-12
-7.20228e-08
1.45542e-07
-7.20233e-08
1.29902e-09
1.45542e-07
-2.87309e-12
-5.92034e-05
5.91215e-05
-5.92034e-05
1.4527e-09
5.91215e-05
-2.71498e-12
1.32157e-09
3.94757e-09
-6.08179e-05
-8.3364e-08
6.07312e-05
1.6744e-07
-6.06957e-05
-1.19246e-07
-2.45813e-08
6.0617e-05
2.26471e-07
4.31925e-09
-7.47175e-08
1.5009e-07
-1.11489e-07
-2.26877e-08
2.09967e-07
3.44228e-09
-5.91983e-05
5.9113e-05
-5.90899e-05
-3.54763e-08
5.90096e-05
3.80913e-09
-3.39311e-08
2.29794e-09
-6.04716e-05
7.5223e-08
6.04361e-05
-6.65615e-08
-6.1238e-05
-1.94239e-07
6.11106e-05
3.23892e-07
-2.99892e-09
8.57675e-08
-8.4784e-08
-1.8834e-07
3.08318e-07
5.91461e-08
-5.87612e-05
5.87418e-05
-5.96257e-05
5.94907e-05
5.37806e-08
-1.10497e-08
-6.09817e-05
-2.06804e-07
6.08466e-05
3.52946e-07
-6.03872e-05
5.2871e-08
2.66829e-08
6.03267e-05
-3.01128e-08
-6.88308e-09
-2.00237e-07
3.35974e-07
6.47393e-08
2.55257e-08
-4.83364e-08
-6.67736e-08
-5.93529e-05
5.92129e-05
-5.87077e-05
3.68665e-08
5.86569e-05
-6.26691e-08
3.60021e-08
-3.16891e-09
-6.05319e-05
-1.33762e-07
6.04382e-05
2.57382e-07
-6.06377e-05
-1.00075e-07
-1.877e-09
6.05353e-05
2.01183e-07
-3.51849e-09
-1.2502e-07
2.39103e-07
-9.07127e-08
-1.42585e-09
1.82156e-07
-2.67568e-09
-5.89236e-05
5.88293e-05
-5.90212e-05
-2.05808e-09
5.89205e-05
-3.02485e-09
-1.9235e-09
-3.23811e-12
-6.06504e-05
-9.67095e-08
6.05498e-05
1.95412e-07
-6.06504e-05
-9.67104e-08
1.86818e-09
6.05498e-05
1.95414e-07
-2.98505e-12
-8.74409e-08
1.76818e-07
-8.74419e-08
1.41876e-09
1.76819e-07
-3.21481e-12
-5.90322e-05
5.89334e-05
-5.90322e-05
2.04902e-09
5.89334e-05
-2.98722e-12
1.91494e-09
3.16056e-09
-6.06377e-05
-1.0007e-07
6.05353e-05
2.01174e-07
-6.0532e-05
-1.33705e-07
-2.66971e-08
6.04382e-05
2.5733e-07
3.51054e-09
-9.07074e-08
1.82147e-07
-1.2496e-07
-2.55389e-08
2.39049e-07
2.66838e-09
-5.90211e-05
5.89205e-05
-5.89236e-05
-3.68147e-08
5.88294e-05
3.01753e-09
-3.59514e-08
1.105e-08
-6.03873e-05
5.27842e-08
6.03268e-05
-3.00658e-08
-6.09817e-05
-2.0681e-07
6.08466e-05
3.52968e-07
6.88112e-09
6.46782e-08
-4.82739e-08
-2.00215e-07
3.35991e-07
6.67602e-08
-5.87078e-05
5.86571e-05
-5.93531e-05
5.9213e-05
6.26555e-08
-1.78452e-08
-6.07084e-05
-2.21063e-07
6.05621e-05
3.85167e-07
-6.02559e-05
2.9306e-08
2.78374e-08
6.01723e-05
8.65226e-09
-1.45693e-08
-2.13467e-07
3.66215e-07
4.23086e-08
2.71476e-08
-1.32222e-08
-7.21642e-08
-5.90684e-05
5.89195e-05
-5.85935e-05
3.7122e-08
5.85135e-05
-6.90149e-08
3.67357e-08
-2.46181e-09
-6.03369e-05
-1.50022e-07
6.02254e-05
2.91828e-07
-6.04255e-05
-1.1805e-07
-2.04723e-09
6.03055e-05
2.37612e-07
-2.77628e-09
-1.40155e-07
2.71335e-07
-1.07781e-07
-1.9871e-09
2.16838e-07
-1.97508e-09
-5.87282e-05
5.86173e-05
-5.88125e-05
-2.10474e-09
5.86946e-05
-2.29184e-09
-2.0792e-09
-3.45088e-12
-6.04413e-05
-1.14846e-07
6.03221e-05
2.31922e-07
-6.04413e-05
-1.14847e-07
2.03817e-09
6.03221e-05
2.31923e-07
-3.25748e-12
-1.04496e-07
2.11049e-07
-1.04497e-07
1.97835e-09
2.1105e-07
-3.48978e-12
-5.88268e-05
5.87099e-05
-5.88268e-05
2.09535e-09
5.87099e-05
-3.29374e-12
2.07009e-09
2.45464e-09
-6.04255e-05
-1.18044e-07
6.03055e-05
2.37602e-07
-6.0337e-05
-1.49967e-07
-2.7849e-08
6.02254e-05
2.91778e-07
2.76886e-09
-1.07775e-07
2.16829e-07
-1.40099e-07
-2.71598e-08
2.71286e-07
1.96833e-09
-5.88125e-05
5.86946e-05
-5.87282e-05
-3.70687e-08
5.86173e-05
2.28496e-09
-3.66835e-08
1.7845e-08
-6.0256e-05
2.92471e-08
6.01724e-05
8.69912e-09
-6.07085e-05
-2.21048e-07
6.05622e-05
3.85166e-07
1.45686e-08
4.22289e-08
-1.31556e-08
-2.13493e-07
3.66246e-07
7.21513e-08
-5.85936e-05
5.85136e-05
-5.90686e-05
5.89197e-05
6.90017e-08
-2.28822e-08
-6.0411e-05
-2.37382e-07
6.02499e-05
4.21337e-07
-6.00723e-05
1.42996e-09
2.80867e-08
5.99582e-05
6.17435e-08
-2.03978e-08
-2.28718e-07
4.00251e-07
1.78248e-08
2.78381e-08
3.39364e-08
-7.58131e-08
-5.87643e-05
5.86027e-05
-5.84209e-05
3.72114e-08
5.83093e-05
-7.35073e-08
3.69168e-08
-1.84978e-09
-6.01053e-05
-1.68622e-07
5.99735e-05
3.30303e-07
-6.01772e-05
-1.37817e-07
-2.0276e-09
6.00376e-05
2.77594e-07
-2.12159e-09
-1.57472e-07
3.07593e-07
-1.26481e-07
-2.0299e-09
2.54674e-07
-1.36422e-09
-5.84984e-05
5.83683e-05
-5.85685e-05
-2.04918e-09
5.84314e-05
-1.6405e-09
-2.06581e-09
-4.22869e-12
-6.01943e-05
-1.34953e-07
6.00547e-05
2.72496e-07
-6.01942e-05
-1.34953e-07
2.01818e-09
6.00547e-05
2.72497e-07
-3.80006e-12
-1.23481e-07
2.49342e-07
-1.23481e-07
2.02075e-09
2.49342e-07
-4.26034e-12
-5.85844e-05
5.84474e-05
-5.85844e-05
2.03943e-09
5.84474e-05
-3.9361e-12
2.05632e-09
1.84292e-09
-6.01772e-05
-1.37811e-07
6.00376e-05
2.77583e-07
-6.01053e-05
-1.68575e-07
-2.80976e-08
5.99735e-05
3.3026e-07
2.11466e-09
-1.26475e-07
2.54664e-07
-1.57422e-07
-2.78489e-08
3.07549e-07
1.35766e-09
-5.85685e-05
5.84314e-05
-5.84984e-05
-3.71722e-08
5.83683e-05
1.63391e-09
-3.68783e-08
2.28835e-08
-6.00724e-05
1.36198e-09
5.99582e-05
6.18072e-08
-6.0411e-05
-2.37385e-07
6.02499e-05
4.21363e-07
2.03981e-08
1.77578e-08
3.40095e-08
-2.28705e-07
4.00271e-07
7.58004e-08
-5.8421e-05
5.83094e-05
-5.87644e-05
5.86029e-05
7.34947e-08
-2.63917e-08
-6.00824e-05
-2.56153e-07
5.99031e-05
4.61847e-07
-5.98292e-05
-2.23005e-08
2.74824e-08
5.96841e-05
1.13552e-07
-2.45624e-08
-2.46016e-07
4.38061e-07
-8.77546e-09
2.76075e-08
8.55084e-08
-7.82369e-08
-5.84331e-05
5.82552e-05
-5.81875e-05
3.68527e-08
5.80501e-05
-7.63668e-08
3.66803e-08
-1.34431e-09
-5.98321e-05
-1.8957e-07
5.96777e-05
3.72811e-07
-5.98888e-05
-1.59657e-07
-1.94218e-09
5.97273e-05
3.21758e-07
-1.56826e-09
-1.76965e-07
3.47513e-07
-1.47006e-07
-1.97068e-09
2.96183e-07
-8.62805e-10
-5.82291e-05
5.80773e-05
-5.82853e-05
-1.94301e-09
5.81267e-05
-1.08949e-09
-1.98057e-09
-4.5885e-12
-5.99056e-05
-1.57089e-07
5.97436e-05
3.17194e-07
-5.99056e-05
-1.57089e-07
1.93245e-09
5.97436e-05
3.17194e-07
-4.37762e-12
-1.44323e-07
2.91412e-07
-1.44323e-07
1.96121e-09
2.91412e-07
-4.61251e-12
-5.83011e-05
5.8142e-05
-5.83011e-05
1.93291e-09
5.8142e-05
-4.40886e-12
1.97074e-09
1.33753e-09
-5.98888e-05
-1.59652e-07
5.97273e-05
3.21749e-07
-5.98322e-05
-1.89524e-07
-2.74923e-08
5.96778e-05
3.72766e-07
1.56154e-09
-1.47001e-07
2.96173e-07
-1.7692e-07
-2.76178e-08
3.47471e-07
8.56377e-10
-5.82853e-05
5.81267e-05
-5.82291e-05
-3.68137e-08
5.80773e-05
1.08308e-09
-3.66415e-08
2.63938e-08
-5.98293e-05
-2.23583e-08
5.96842e-05
1.13592e-07
-6.00824e-05
-2.56156e-07
5.99031e-05
4.6184e-07
2.45643e-08
-8.83603e-09
8.55621e-08
-2.46027e-07
4.38076e-07
7.8225e-08
-5.81876e-05
5.80502e-05
-5.84332e-05
5.82553e-05
7.63546e-08
-2.88747e-08
-5.97159e-05
-2.77522e-07
5.95153e-05
5.07027e-07
-5.9526e-05
-5.0208e-08
2.64228e-08
5.93521e-05
1.68839e-07
-2.74687e-08
-2.65924e-07
4.80579e-07
-3.44655e-08
2.67317e-08
1.3836e-07
-7.98365e-08
-5.80677e-05
5.787e-05
-5.7901e-05
3.62769e-08
5.77347e-05
-7.83926e-08
3.62522e-08
-9.33099e-10
-5.95127e-05
-2.12956e-07
5.93332e-05
4.19796e-07
-5.95556e-05
-1.83787e-07
-1.82618e-09
5.93697e-05
3.70547e-07
-1.11812e-09
-1.98989e-07
3.91906e-07
-1.6981e-07
-1.86886e-09
3.42297e-07
-4.5654e-10
-5.79152e-05
5.7739e-05
-5.79581e-05
-1.81327e-09
5.77757e-05
-6.42537e-10
-1.8623e-09
-4.85186e-12
-5.95711e-05
-1.81454e-07
5.93844e-05
3.66407e-07
-5.95711e-05
-1.81455e-07
1.81613e-09
5.93843e-05
3.66407e-07
-4.67172e-12
-1.67388e-07
3.37992e-07
-1.67388e-07
1.85909e-09
3.37992e-07
-4.88441e-12
-5.79728e-05
5.77895e-05
-5.79728e-05
1.8028e-09
5.77895e-05
-4.70793e-12
1.85213e-09
9.26164e-10
-5.95556e-05
-1.83782e-07
5.93697e-05
3.70539e-07
-5.95127e-05
-2.1291e-07
-2.64311e-08
5.93332e-05
4.19751e-07
1.11132e-09
-1.69806e-07
3.42289e-07
-1.98944e-07
-2.67408e-08
3.9186e-07
4.50083e-10
-5.79581e-05
5.77757e-05
-5.79152e-05
-3.62382e-08
5.7739e-05
6.36161e-10
-3.62137e-08
2.88768e-08
-5.95261e-05
-5.02607e-08
5.93522e-05
1.68882e-07
-5.9716e-05
-2.77514e-07
5.95153e-05
5.07015e-07
2.74709e-08
-3.45215e-08
1.38404e-07
-2.65923e-07
4.80565e-07
7.98254e-08
-5.79011e-05
5.77347e-05
-5.80677e-05
5.787e-05
7.83812e-08
-3.06845e-08
-5.93056e-05
-3.01557e-07
5.90805e-05
5.57314e-07
-5.91651e-05
-8.05588e-08
2.51891e-08
5.89614e-05
2.28451e-07
-2.95535e-08
-2.88345e-07
5.27647e-07
-6.33471e-08
2.55627e-08
1.95194e-07
-8.07217e-08
-5.76612e-05
5.74404e-05
-5.75562e-05
3.54804e-08
5.73594e-05
-7.95699e-08
3.55482e-08
-6.05984e-10
-5.91421e-05
-2.38859e-07
5.89349e-05
4.7184e-07
-5.91727e-05
-2.10327e-07
-1.69599e-09
5.89599e-05
4.24209e-07
-7.51224e-10
-2.23298e-07
4.40718e-07
-1.94812e-07
-1.74459e-09
3.92848e-07
-1.36718e-10
-5.75515e-05
5.73482e-05
-5.75823e-05
-1.67384e-09
5.73735e-05
-2.82945e-10
-1.72675e-09
-5.1058e-12
-5.91863e-05
-2.08193e-07
5.89724e-05
4.2043e-07
-5.91863e-05
-2.08193e-07
1.68559e-09
5.89724e-05
4.2043e-07
-4.92301e-12
-1.92606e-07
3.88934e-07
-1.92606e-07
1.73446e-09
3.88934e-07
-5.12194e-12
-5.75952e-05
5.73853e-05
-5.75952e-05
1.66302e-09
5.73853e-05
-4.95976e-12
1.7162e-09
5.99155e-10
-5.91727e-05
-2.10322e-07
5.89599e-05
4.24201e-07
-5.91421e-05
-2.38815e-07
-2.51965e-08
5.89349e-05
4.71798e-07
7.44375e-10
-1.94808e-07
3.9284e-07
-2.23254e-07
-2.55704e-08
4.40675e-07
1.30316e-10
-5.75823e-05
5.73735e-05
-5.75515e-05
-3.54423e-08
5.73483e-05
2.76577e-10
-3.55101e-08
3.06867e-08
-5.91652e-05
-8.061e-08
5.89614e-05
2.28495e-07
-5.93056e-05
-3.01549e-07
5.90805e-05
5.5731e-07
2.95556e-08
-6.34009e-08
1.95239e-07
-2.88338e-07
5.27642e-07
8.07112e-08
-5.75563e-05
5.73595e-05
-5.76612e-05
5.74404e-05
7.95592e-08
-3.2012e-08
-5.8845e-05
-3.28405e-07
5.85922e-05
6.13178e-07
-5.87439e-05
-1.1323e-07
2.39091e-08
5.85083e-05
2.92942e-07
-3.1084e-08
-3.13462e-07
5.80053e-07
-9.44947e-08
2.43053e-08
2.56554e-07
-8.10941e-08
-5.72071e-05
5.69597e-05
-5.71501e-05
3.45626e-08
5.69212e-05
-8.01577e-08
3.46834e-08
-3.62499e-10
-5.8715e-05
-2.6748e-07
5.84773e-05
5.29423e-07
-5.87349e-05
-2.39517e-07
-1.56577e-09
5.84923e-05
4.8324e-07
-4.69749e-10
-2.50229e-07
4.94868e-07
-2.22339e-07
-1.6139e-09
4.48511e-07
1.00853e-10
-5.71327e-05
5.68997e-05
-5.71527e-05
-1.53729e-09
5.69149e-05
-8.02805e-12
-1.58854e-09
-5.27586e-12
-5.87461e-05
-2.37539e-07
5.85024e-05
4.79744e-07
-5.87461e-05
-2.3754e-07
1.55511e-09
5.85024e-05
4.79744e-07
-5.13242e-12
-2.20309e-07
4.44917e-07
-2.2031e-07
1.60347e-09
4.44917e-07
-5.28988e-12
-5.71634e-05
5.69244e-05
-5.71634e-05
1.52617e-09
5.69244e-05
-5.16219e-12
1.57767e-09
3.55743e-10
-5.87349e-05
-2.39513e-07
5.84924e-05
4.83232e-07
-5.8715e-05
-2.67437e-07
-2.39158e-08
5.84774e-05
5.29382e-07
4.62973e-10
-2.22335e-07
4.48504e-07
-2.50187e-07
-2.43122e-08
4.94827e-07
-1.07182e-10
-5.71527e-05
5.69149e-05
-5.71327e-05
-3.45253e-08
5.68997e-05
1.72829e-12
-3.4646e-08
3.20143e-08
-5.8744e-05
-1.1328e-07
5.85083e-05
2.92986e-07
-5.8845e-05
-3.28399e-07
5.85923e-05
6.13177e-07
3.10863e-08
-9.45468e-08
2.56599e-07
-3.13457e-07
5.80052e-07
8.10843e-08
-5.71502e-05
5.69213e-05
-5.72071e-05
5.69598e-05
8.01477e-08
-3.29313e-08
-5.83279e-05
-3.57747e-07
5.80445e-05
6.74054e-07
-5.82583e-05
-1.48221e-07
2.26013e-08
5.79887e-05
3.62246e-07
-3.21845e-08
-3.41284e-07
6.3784e-07
-1.2797e-07
2.30199e-08
3.22797e-07
-8.09868e-08
-5.66987e-05
5.6422e-05
-5.66793e-05
3.3543e-08
5.64165e-05
-8.02755e-08
3.37184e-08
-1.91192e-10
-5.82261e-05
-2.98556e-07
5.79554e-05
5.92028e-07
-5.82366e-05
-2.71148e-07
-1.44265e-09
5.79618e-05
5.4722e-07
-2.65846e-10
-2.79782e-07
5.54366e-07
-2.52447e-07
-1.48768e-09
5.09403e-07
2.66228e-10
-5.66534e-05
5.63882e-05
-5.66641e-05
-1.40983e-09
5.63946e-05
1.90056e-10
-1.4571e-09
-5.35276e-12
-5.82454e-05
-2.69303e-07
5.79693e-05
5.43965e-07
-5.82454e-05
-2.69304e-07
1.43185e-09
5.79693e-05
5.43966e-07
-5.26174e-12
-2.50559e-07
5.06067e-07
-2.5056e-07
1.47706e-09
5.06067e-07
-5.37214e-12
-5.66724e-05
5.64017e-05
-5.66724e-05
1.39853e-09
5.64017e-05
-5.28469e-12
1.446e-09
1.84531e-10
-5.82366e-05
-2.71144e-07
5.79618e-05
5.47213e-07
-5.82261e-05
-2.98515e-07
-2.26075e-08
5.79554e-05
5.91988e-07
2.59217e-10
-2.52443e-07
5.09396e-07
-2.79741e-07
-2.30263e-08
5.54327e-07
-2.72471e-10
-5.66641e-05
5.63946e-05
-5.66535e-05
-3.35065e-08
5.63882e-05
-1.96267e-10
-3.36819e-08
3.29336e-08
-5.82583e-05
-1.48268e-07
5.79887e-05
3.62288e-07
-5.83279e-05
-3.57741e-07
5.80445e-05
6.74054e-07
3.21868e-08
-1.2802e-07
3.22841e-07
-3.41279e-07
6.37841e-07
8.09776e-08
-5.66793e-05
5.64165e-05
-5.66988e-05
5.6422e-05
8.02661e-08
-3.35683e-08
-5.77482e-05
-3.90021e-07
5.7431e-05
7.40781e-07
-5.77038e-05
-1.85754e-07
2.13215e-08
5.73978e-05
4.36848e-07
-3.2952e-08
-3.71854e-07
7.01124e-07
-1.63884e-07
2.17413e-08
3.94112e-07
-8.05956e-08
-5.61301e-05
5.58207e-05
-5.61399e-05
3.25018e-08
5.5841e-05
-8.00347e-08
3.27015e-08
-8.06171e-11
-5.76699e-05
-3.32439e-07
5.73634e-05
6.60359e-07
-5.76726e-05
-3.05549e-07
-1.33291e-09
5.73626e-05
6.16818e-07
-1.27818e-10
-3.11994e-07
6.19292e-07
-2.85183e-07
-1.37243e-09
5.75625e-07
3.71086e-10
-5.61085e-05
5.58082e-05
-5.61111e-05
-1.2974e-09
5.58072e-05
3.2243e-10
-1.33838e-09
-5.35991e-12
-5.76788e-05
-3.03818e-07
5.73675e-05
6.13772e-07
-5.76788e-05
-3.03819e-07
1.32207e-09
5.73675e-05
6.13773e-07
-5.30474e-12
-2.83417e-07
5.7251e-07
-2.83417e-07
1.36171e-09
5.72511e-07
-5.38768e-12
-5.61169e-05
5.58118e-05
-5.61169e-05
1.28601e-09
5.58118e-05
-5.33324e-12
1.32714e-09
7.40111e-11
-5.76726e-05
-3.05545e-07
5.73626e-05
6.1681e-07
-5.767e-05
-3.32399e-07
-2.13271e-08
5.73634e-05
6.6032e-07
1.21257e-10
-2.85179e-07
5.75617e-07
-3.11954e-07
-2.17471e-08
6.19253e-07
-3.77268e-10
-5.61111e-05
5.58072e-05
-5.61086e-05
-3.24661e-08
5.58082e-05
-3.28573e-10
-3.26658e-08
3.35705e-08
-5.77038e-05
-1.85801e-07
5.73978e-05
4.3689e-07
-5.77482e-05
-3.90015e-07
5.7431e-05
7.40781e-07
3.29542e-08
-1.63933e-07
3.94155e-07
-3.7185e-07
7.01125e-07
8.0587e-08
-5.61399e-05
5.58411e-05
-5.61302e-05
5.58208e-05
8.00259e-08
-3.39777e-08
-5.70996e-05
-4.25086e-07
5.67456e-05
8.13126e-07
-5.70756e-05
-2.25823e-07
2.00713e-08
5.67307e-05
5.16662e-07
-3.34636e-08
-4.05202e-07
7.69989e-07
-2.02303e-07
2.04889e-08
4.70591e-07
-7.99623e-08
-5.5495e-05
5.51499e-05
-5.55276e-05
3.14478e-08
5.51903e-05
-7.95206e-08
3.16627e-08
-1.78664e-11
-5.70411e-05
-3.69016e-07
5.6696e-05
7.34204e-07
-5.70371e-05
-3.42632e-07
-1.23629e-09
5.66891e-05
6.91865e-07
-4.38302e-11
-3.46887e-07
6.897e-07
-3.2058e-07
-1.27047e-09
6.47248e-07
4.27168e-10
-5.54926e-05
5.51546e-05
-5.54882e-05
-1.19998e-09
5.51472e-05
4.00593e-10
-1.23461e-09
-5.32484e-12
-5.70409e-05
-3.40998e-07
5.66916e-05
6.88997e-07
-5.70409e-05
-3.40998e-07
1.22555e-09
5.66916e-05
6.88997e-07
-5.2837e-12
-3.18919e-07
6.44326e-07
-3.18919e-07
1.25977e-09
6.44326e-07
-5.35928e-12
-5.54916e-05
5.51495e-05
-5.54916e-05
1.18861e-09
5.51495e-05
-5.32183e-12
1.22333e-09
1.13828e-11
-5.70371e-05
-3.42627e-07
5.66891e-05
6.91857e-07
-5.70412e-05
-3.68978e-07
-2.00767e-08
5.66961e-05
7.34166e-07
3.73285e-11
-3.20576e-07
6.4724e-07
-3.46848e-07
-2.04942e-08
6.89662e-07
-4.33272e-10
-5.54882e-05
5.51472e-05
-5.54926e-05
-3.14131e-08
5.51546e-05
-4.06678e-10
-3.16278e-08
3.39799e-08
-5.70756e-05
-2.25868e-07
5.67307e-05
5.16703e-07
-5.70997e-05
-4.25081e-07
5.67456e-05
8.13126e-07
3.34658e-08
-2.0235e-07
4.70633e-07
-4.05198e-07
7.69991e-07
7.99543e-08
-5.55276e-05
5.51903e-05
-5.54951e-05
5.51499e-05
7.95124e-08
-3.42053e-08
-5.63763e-05
-4.62884e-07
5.59824e-05
8.90976e-07
-5.63686e-05
-2.68409e-07
1.88498e-08
5.59823e-05
6.01657e-07
-3.37742e-08
-4.41292e-07
8.44377e-07
-2.43234e-07
1.9264e-08
5.52224e-07
-7.91413e-08
-5.47874e-05
5.44037e-05
-5.48377e-05
3.03947e-08
5.44597e-05
-7.87959e-08
3.06181e-08
1.1354e-11
-5.63342e-05
-4.08225e-07
5.59479e-05
8.13409e-07
-5.63247e-05
-3.82345e-07
-1.15217e-09
5.59359e-05
7.72266e-07
6.49022e-13
-3.84425e-07
7.65511e-07
-3.58618e-07
-1.18084e-09
7.24242e-07
4.46111e-10
-5.48004e-05
5.44221e-05
-5.47902e-05
-1.11689e-09
5.44094e-05
4.36573e-10
-1.14525e-09
-5.28667e-12
-5.6326e-05
-3.80793e-07
5.59361e-05
7.69547e-07
-5.6326e-05
-3.80794e-07
1.14156e-09
5.59361e-05
7.69548e-07
-5.25413e-12
-3.57044e-07
7.2148e-07
-3.57045e-07
1.17027e-09
7.2148e-07
-5.31394e-12
-5.47913e-05
5.44094e-05
-5.47913e-05
1.10561e-09
5.44094e-05
-5.287e-12
1.13403e-09
-1.76944e-11
-5.63247e-05
-3.82341e-07
5.59359e-05
7.72259e-07
-5.63342e-05
-4.08187e-07
-1.88549e-08
5.59479e-05
8.13372e-07
-6.97135e-12
-3.58614e-07
7.24234e-07
-3.84388e-07
-1.92693e-08
7.65475e-07
-4.52121e-10
-5.47902e-05
5.44094e-05
-5.48004e-05
-3.03608e-08
5.44221e-05
-4.42557e-10
-3.05841e-08
3.42077e-08
-5.63687e-05
-2.68452e-07
5.59824e-05
6.01696e-07
-5.63763e-05
-4.62879e-07
5.59824e-05
8.90976e-07
3.37765e-08
-2.4328e-07
5.52265e-07
-4.41288e-07
8.44378e-07
7.91339e-08
-5.48377e-05
5.44597e-05
-5.47874e-05
5.44037e-05
7.87883e-08
-3.42902e-08
-5.55724e-05
-5.03164e-07
5.5136e-05
9.73862e-07
-5.55782e-05
-3.13321e-07
1.76788e-08
5.51481e-05
6.91413e-07
-3.39145e-08
-4.79839e-07
9.23749e-07
-2.86502e-07
1.80713e-08
6.38652e-07
-7.81618e-08
-5.40017e-05
5.35767e-05
-5.40658e-05
2.93549e-08
5.36449e-05
-7.78784e-08
2.95716e-08
9.24849e-12
-5.55441e-05
-4.4987e-07
5.5114e-05
8.97614e-07
-5.553e-05
-4.24474e-07
-1.08144e-09
5.50979e-05
8.57589e-07
1.40375e-11
-4.2436e-07
8.46213e-07
-3.99054e-07
-1.1039e-09
8.06122e-07
4.33836e-10
-5.40269e-05
5.36059e-05
-5.40119e-05
-1.04826e-09
5.35889e-05
4.39273e-10
-1.06984e-09
-5.20307e-12
-5.55291e-05
-4.22993e-07
5.5096e-05
8.55e-07
-5.55291e-05
-4.22994e-07
1.07101e-09
5.5096e-05
8.55001e-07
-5.19148e-12
-3.97556e-07
8.03498e-07
-3.97557e-07
1.09349e-09
8.03499e-07
-5.2339e-12
-5.40107e-05
5.35867e-05
-5.40107e-05
1.03713e-09
5.35867e-05
-5.22332e-12
1.05875e-09
-1.55848e-11
-5.553e-05
-4.24469e-07
5.50979e-05
8.57581e-07
-5.55441e-05
-4.49832e-07
-1.76833e-08
5.5114e-05
8.97576e-07
-2.03007e-11
-3.9905e-07
8.06114e-07
-4.24322e-07
-1.80761e-08
8.46176e-07
-4.39822e-10
-5.40119e-05
5.35889e-05
-5.40269e-05
-2.93217e-08
5.36059e-05
-4.45201e-10
-2.95384e-08
3.42925e-08
-5.55782e-05
-3.13363e-07
5.51482e-05
6.91452e-07
-5.55724e-05
-5.03159e-07
5.5136e-05
9.73863e-07
3.39168e-08
-2.86546e-07
6.38691e-07
-4.79836e-07
9.23751e-07
7.81549e-08
-5.40658e-05
5.36449e-05
-5.40017e-05
5.35767e-05
7.78713e-08
-3.42764e-08
-5.46825e-05
-5.45872e-07
5.4201e-05
1.06167e-06
-5.46994e-05
-3.60511e-07
1.67684e-08
5.42232e-05
7.85672e-07
-3.39549e-08
-5.2105e-07
1.0085e-06
-3.32175e-07
1.6962e-08
7.29967e-07
-7.70807e-08
-5.31325e-05
5.26637e-05
-5.32073e-05
2.83483e-08
5.27414e-05
-7.68718e-08
2.85647e-08
-1.85296e-11
-5.46656e-05
-4.93854e-07
5.41894e-05
9.86794e-07
-5.46478e-05
-4.68942e-07
-1.02394e-09
5.41701e-05
9.47681e-07
-2.83803e-12
-4.66888e-07
9.32283e-07
-4.4204e-07
-1.04072e-09
8.93196e-07
3.96317e-10
-5.31672e-05
5.27013e-05
-5.31483e-05
-9.94072e-10
5.26807e-05
4.13588e-10
-1.00936e-09
-5.10957e-12
-5.46449e-05
-4.67524e-07
5.41662e-05
9.45216e-07
-5.46449e-05
-4.67525e-07
1.01373e-09
5.41662e-05
9.45217e-07
-5.1031e-12
-4.40608e-07
8.90696e-07
-4.40609e-07
1.03051e-09
8.90697e-07
-5.13668e-12
-5.31451e-05
5.26766e-05
-5.31451e-05
9.83133e-10
5.26766e-05
-5.13465e-12
9.98428e-10
1.2192e-11
-5.46478e-05
-4.68937e-07
5.41701e-05
9.47674e-07
-5.46656e-05
-4.93816e-07
-1.67701e-08
5.41894e-05
9.86754e-07
-3.46394e-12
-4.42036e-07
8.93189e-07
-4.66851e-07
-1.6964e-08
9.32244e-07
-4.02283e-10
-5.31483e-05
5.26807e-05
-5.31672e-05
-2.83156e-08
5.27013e-05
-4.19512e-10
-2.85321e-08
3.42786e-08
-5.46994e-05
-3.60551e-07
5.42232e-05
7.85711e-07
-5.46825e-05
-5.45867e-07
5.4201e-05
1.06167e-06
3.3957e-08
-3.32218e-07
7.30006e-07
-5.21047e-07
1.0085e-06
7.70742e-08
-5.32073e-05
5.27414e-05
-5.31325e-05
5.26638e-05
7.68652e-08
-3.41813e-08
-5.37017e-05
-5.90708e-07
5.31727e-05
1.1538e-06
-5.37277e-05
-4.09722e-07
1.60705e-08
5.32032e-05
8.83919e-07
-3.38964e-08
-5.64394e-07
1.0976e-06
-3.79935e-07
1.6251e-08
8.25317e-07
-7.59165e-08
-5.21751e-05
5.16603e-05
-5.22581e-05
2.73743e-08
5.17451e-05
-7.57544e-08
2.75826e-08
-5.93202e-11
-5.36944e-05
-5.39883e-07
5.317e-05
1.08034e-06
-5.36736e-05
-5.15469e-07
-9.79835e-10
5.3148e-05
1.04199e-06
-3.68522e-11
-5.11453e-07
1.02279e-06
-4.87105e-07
-9.90455e-10
9.84517e-07
3.41787e-10
-5.2217e-05
5.17042e-05