/*--------------------------------*- C++ -*----------------------------------*\
  =========                 |
  \\      /  F ield         | OpenFOAM: The Open Source CFD Toolbox
   \\    /   O peration     | Website:  https://openfoam.org
    \\  /    A nd           | Version:  9
     \\/     M anipulation  |
\*---------------------------------------------------------------------------*/
FoamFile
{
    format      ascii;
    class       volScalarField;
    location    "0.1";
    object      k;
}
// * * * * * * * * * * * * * * * * * * * * * * * * * * * * * * * * * * * * * //

dimensions      [0 2 -2 0 0 0 0];

internalField   nonuniform List<scalar> 
36360
(
0.00752819
0.00683533
0.00694227
0.00637839
0.00381088
0.00331432
0.0038005
0.00337793
0.00321127
0.00312804
0.00328462
0.00321821
0.00325475
0.00325317
0.00333056
0.00332917
0.00312691
0.00312691
0.00321732
0.00321732
0.00325313
0.00325313
0.00332912
0.00332912
0.00312804
0.00321122
0.00321821
0.00328458
0.00325317
0.00325475
0.00332917
0.00333056
0.00683529
0.00752822
0.00637836
0.00694229
0.00331432
0.00381087
0.00337793
0.0038005
0.00754192
0.00685134
0.00755389
0.00686038
0.00380811
0.00330917
0.00381002
0.00330971
0.00320594
0.00312228
0.00320665
0.00312254
0.00324968
0.00324821
0.00324994
0.00324843
0.00312115
0.00312115
0.0031214
0.0031214
0.00324818
0.00324818
0.00324839
0.00324839
0.00312228
0.00320589
0.00312254
0.0032066
0.00324821
0.00324968
0.00324843
0.00324994
0.00685129
0.00754189
0.00686033
0.00755392
0.00330916
0.00380811
0.0033097
0.00381002
0.00751428
0.00682562
0.00752976
0.00683999
0.00380466
0.00330847
0.00380631
0.00330884
0.00320489
0.00312225
0.00320542
0.00312227
0.00324954
0.00324812
0.00324961
0.00324816
0.00312119
0.00312119
0.00312114
0.00312114
0.0032481
0.0032481
0.00324814
0.00324814
0.00312225
0.00320485
0.00312226
0.00320537
0.00324812
0.00324954
0.00324816
0.00324961
0.00682605
0.00751474
0.00684019
0.00752995
0.00330847
0.00380466
0.00330883
0.00380631
0.00748223
0.00679809
0.0074979
0.00681151
0.00380167
0.00330769
0.00380312
0.00330808
0.00320384
0.00312224
0.00320436
0.00312225
0.00324939
0.00324798
0.00324946
0.00324805
0.0031212
0.0031212
0.00312115
0.00312115
0.00324796
0.00324796
0.00324803
0.00324803
0.00312224
0.0032038
0.00312225
0.00320431
0.00324798
0.00324938
0.00324805
0.00324946
0.00679861
0.00748287
0.00681202
0.0074985
0.00330768
0.00380169
0.00330808
0.00380313
0.00745103
0.00677101
0.00746704
0.00678488
0.00379875
0.00330684
0.00380021
0.00330727
0.0032028
0.00312223
0.00320332
0.00312224
0.00324919
0.0032478
0.00324929
0.00324789
0.0031212
0.0031212
0.00312115
0.00312115
0.00324778
0.00324778
0.00324788
0.00324788
0.00312223
0.00320276
0.00312224
0.00320328
0.0032478
0.00324919
0.00324789
0.00324929
0.00677162
0.00745169
0.00678541
0.00746767
0.00330684
0.00379878
0.00330727
0.00380024
0.0074193
0.00674437
0.00743496
0.00675744
0.00379593
0.00330595
0.00379731
0.0033064
0.00320177
0.00312221
0.00320228
0.00312222
0.00324895
0.00324757
0.00324907
0.00324769
0.00312121
0.00312121
0.00312116
0.00312116
0.00324756
0.00324756
0.00324767
0.00324767
0.00312221
0.00320173
0.00312222
0.00320224
0.00324757
0.00324895
0.00324769
0.00324907
0.00674527
0.00742032
0.00675825
0.00743583
0.00330595
0.00379594
0.0033064
0.00379733
0.00738856
0.00671895
0.00740404
0.00673168
0.00379315
0.00330503
0.00379455
0.00330549
0.00320078
0.0031222
0.00320127
0.00312221
0.00324866
0.0032473
0.00324881
0.00324744
0.00312121
0.00312121
0.00312116
0.00312116
0.00324728
0.00324728
0.00324742
0.00324742
0.0031222
0.00320074
0.00312221
0.00320123
0.0032473
0.00324866
0.00324744
0.00324881
0.00671986
0.00738964
0.00673253
0.00740503
0.00330503
0.00379316
0.00330549
0.00379456
0.00735869
0.00669492
0.00737348
0.00670678
0.00379046
0.00330407
0.00379178
0.00330455
0.00319983
0.00312219
0.0032003
0.0031222
0.00324831
0.00324696
0.00324849
0.00324713
0.00312121
0.00312121
0.00312116
0.00312116
0.00324694
0.00324694
0.00324711
0.00324711
0.00312219
0.00319979
0.0031222
0.00320026
0.00324696
0.00324831
0.00324713
0.00324849
0.00669546
0.0073594
0.00670751
0.00737442
0.00330406
0.00379046
0.00330454
0.00379179
0.00732917
0.00667172
0.00734383
0.00668313
0.00378783
0.00330306
0.00378914
0.00330356
0.00319892
0.00312218
0.00319937
0.00312219
0.0032479
0.00324657
0.00324811
0.00324677
0.00312121
0.00312121
0.00312117
0.00312117
0.00324655
0.00324655
0.00324675
0.00324675
0.00312218
0.00319887
0.00312218
0.00319932
0.00324657
0.0032479
0.00324677
0.00324811
0.00667214
0.00732974
0.00668363
0.00734447
0.00330306
0.00378781
0.00330356
0.00378912
0.00730022
0.00664965
0.00731455
0.00666049
0.00378523
0.00330201
0.00378652
0.00330254
0.00319804
0.00312217
0.00319847
0.00312218
0.00324742
0.0032461
0.00324766
0.00324634
0.00312122
0.00312122
0.00312117
0.00312117
0.00324608
0.00324608
0.00324632
0.00324632
0.00312217
0.00319799
0.00312218
0.00319842
0.0032461
0.00324742
0.00324634
0.00324766
0.00664978
0.00730052
0.0066608
0.00731504
0.00330201
0.00378523
0.00330253
0.00378651
0.00727112
0.00662784
0.00728582
0.00663879
0.00378265
0.0033009
0.00378394
0.00330146
0.00319719
0.00312216
0.00319761
0.00312217
0.00324686
0.00324556
0.00324714
0.00324583
0.00312122
0.00312122
0.00312118
0.00312118
0.00324554
0.00324554
0.00324581
0.00324581
0.00312216
0.00319714
0.00312217
0.00319756
0.00324556
0.00324686
0.00324583
0.00324714
0.0066278
0.00727117
0.00663881
0.00728597
0.00330089
0.00378264
0.00330145
0.00378394
0.00724125
0.0066062
0.00725624
0.00661696
0.00378009
0.00329972
0.00378137
0.00330031
0.00319636
0.00312222
0.00319676
0.00312216
0.00324621
0.00324493
0.00324654
0.00324525
0.00312122
0.00312122
0.00312119
0.00312119
0.00324491
0.00324491
0.00324523
0.00324523
0.00312221
0.00319631
0.00312216
0.00319672
0.00324493
0.00324621
0.00324525
0.00324654
0.00660615
0.00724128
0.00661692
0.00725628
0.00329971
0.00378009
0.00330031
0.00378136
0.00721117
0.00658519
0.00722625
0.00659562
0.00377755
0.00329846
0.00377881
0.0032991
0.00319556
0.00312221
0.00319595
0.00312216
0.00324547
0.00324421
0.00324585
0.00324458
0.00312122
0.00312122
0.00312119
0.00312119
0.00324419
0.00324419
0.00324456
0.00324456
0.00312221
0.00319551
0.00312216
0.0031959
0.00324421
0.00324547
0.00324458
0.00324585
0.00658515
0.0072112
0.00659558
0.00722628
0.00329846
0.00377754
0.00329909
0.00377881
0.00718089
0.00656486
0.00719608
0.00657496
0.00377503
0.00329712
0.00377628
0.0032978
0.00319479
0.00312221
0.00319517
0.00312215
0.00324463
0.00324338
0.00324506
0.0032438
0.00312121
0.00312121
0.0031212
0.0031212
0.00324336
0.00324336
0.00324378
0.00324378
0.00312221
0.00319474
0.00312215
0.00319512
0.00324338
0.00324463
0.0032438
0.00324506
0.00656482
0.00718093
0.00657491
0.00719611
0.00329712
0.00377502
0.00329779
0.00377628
0.00715035
0.0065452
0.00716569
0.00655496
0.00377254
0.00329569
0.00377378
0.00329641
0.00319405
0.00312221
0.00319441
0.00312215
0.00324368
0.00324245
0.00324416
0.00324292
0.00312122
0.00312122
0.00312121
0.00312121
0.00324243
0.00324243
0.0032429
0.0032429
0.00312221
0.003194
0.00312215
0.00319436
0.00324245
0.00324368
0.00324292
0.00324416
0.00654515
0.00715039
0.00655492
0.00716572
0.00329569
0.00377253
0.00329641
0.00377377
0.00711948
0.00652619
0.00713498
0.00653563
0.00377007
0.00329416
0.0037713
0.00329493
0.00319334
0.00312221
0.00319369
0.00312215
0.0032426
0.00324138
0.00324315
0.00324192
0.00312123
0.00312123
0.00312123
0.00312123
0.00324137
0.00324137
0.00324191
0.00324191
0.00312221
0.00319329
0.00312215
0.00319364
0.00324138
0.0032426
0.00324192
0.00324315
0.00652614
0.00711951
0.00653558
0.00713502
0.00329415
0.00377007
0.00329493
0.0037713
0.00708819
0.00650781
0.00710391
0.00651694
0.00376763
0.00329251
0.00376885
0.00329334
0.00319266
0.00312221
0.00319299
0.00312216
0.00324139
0.00324019
0.00324201
0.0032408
0.00312125
0.00312125
0.00312124
0.00312124
0.00324017
0.00324017
0.00324078
0.00324078
0.00312221
0.00319262
0.00312215
0.00319294
0.00324019
0.00324139
0.0032408
0.00324201
0.00650777
0.00708822
0.00651689
0.00710394
0.0032925
0.00376763
0.00329334
0.00376884
0.00705645
0.00649008
0.0070724
0.00649888
0.00376521
0.00329074
0.00376642
0.00329163
0.00319201
0.00312221
0.00319233
0.00312216
0.00324004
0.00323885
0.00324073
0.00323953
0.00312126
0.00312126
0.00312126
0.00312126
0.00323884
0.00323884
0.00323952
0.00323952
0.0031222
0.00319196
0.00312216
0.00319228
0.00323885
0.00324004
0.00323953
0.00324073
0.00649003
0.00705648
0.00649884
0.00707244
0.00329073
0.00376521
0.00329163
0.00376641
0.00702421
0.00647296
0.00704042
0.00648146
0.00376282
0.00328884
0.00376401
0.0032898
0.00319139
0.00312221
0.00319169
0.00312217
0.00323854
0.00323737
0.00323931
0.00323812
0.00312128
0.00312128
0.00312128
0.00312128
0.00323735
0.00323735
0.0032381
0.0032381
0.00312221
0.00319134
0.00312217
0.00319164
0.00323737
0.00323854
0.00323812
0.0032393
0.00647292
0.00702424
0.00648142
0.00704045
0.00328883
0.00376281
0.00328979
0.00376401
0.00699146
0.00645647
0.00700793
0.00646466
0.00376044
0.00328679
0.00376162
0.00328783
0.0031908
0.0031222
0.00319109
0.00312218
0.00323688
0.00323572
0.00323772
0.00323655
0.00312131
0.00312131
0.0031213
0.0031213
0.0032357
0.0032357
0.00323654
0.00323654
0.0031222
0.00319075
0.00312218
0.00319104
0.00323572
0.00323688
0.00323655
0.00323772
0.00645643
0.00699149
0.00646462
0.00700796
0.00328679
0.00376043
0.00328782
0.00376162
0.0069582
0.0064406
0.00697492
0.00644848
0.00375808
0.0032846
0.00375926
0.00328571
0.00319024
0.0031222
0.00319051
0.00312219
0.00323505
0.0032339
0.00323598
0.00323482
0.00312133
0.00312133
0.00312132
0.00312132
0.00323388
0.00323388
0.0032348
0.0032348
0.0031222
0.00319019
0.00312219
0.00319046
0.0032339
0.00323505
0.00323482
0.00323598
0.00644055
0.00695823
0.00644843
0.00697495
0.00328459
0.00375808
0.0032857
0.00375925
0.00692446
0.00642534
0.00694142
0.00643291
0.00375575
0.00328225
0.00375691
0.00328343
0.0031897
0.00312222
0.00318996
0.00312221
0.00323304
0.0032319
0.00323406
0.00323291
0.00312136
0.00312136
0.00312135
0.00312135
0.00323189
0.00323189
0.0032329
0.0032329
0.00312221
0.00318965
0.00312221
0.00318991
0.0032319
0.00323304
0.00323291
0.00323406
0.0064253
0.00692449
0.00643287
0.00694145
0.00328224
0.00375574
0.00328343
0.00375691
0.00689028
0.0064107
0.00690745
0.00641796
0.00375344
0.00327973
0.00375459
0.003281
0.00318919
0.00312224
0.00318943
0.00312223
0.00323086
0.00322973
0.00323196
0.00323083
0.00312139
0.00312139
0.00312138
0.00312138
0.00322971
0.00322971
0.00323081
0.00323081
0.00312224
0.00318914
0.00312223
0.00318938
0.00322973
0.00323086
0.00323083
0.00323196
0.00641066
0.00689031
0.00641792
0.00690748
0.00327972
0.00375343
0.00328099
0.00375458
0.00685575
0.00639668
0.00687309
0.00640364
0.00375115
0.00327705
0.00375229
0.0032784
0.00318871
0.00312226
0.00318894
0.00312225
0.00322848
0.00322736
0.00322968
0.00322856
0.00312142
0.00312142
0.00312141
0.00312141
0.00322735
0.00322735
0.00322854
0.00322854
0.00312226
0.00318866
0.00312225
0.00318889
0.00322736
0.00322848
0.00322856
0.00322968
0.00639663
0.00685578
0.00640359
0.00687312
0.00327704
0.00375115
0.0032784
0.00375229
0.00682094
0.00638324
0.0068384
0.0063899
0.0037489
0.0032742
0.00375002
0.00327564
0.00318826
0.00312229
0.00318847
0.00312228
0.00322592
0.00322481
0.00322722
0.0032261
0.00312146
0.00312146
0.00312144
0.00312144
0.0032248
0.0032248
0.00322609
0.00322609
0.00312229
0.00318821
0.00312228
0.00318842
0.00322481
0.00322592
0.0032261
0.00322722
0.0063832
0.00682097
0.00638986
0.00683843
0.00327419
0.0037489
0.00327563
0.00375002
0.006786
0.00637042
0.00680351
0.00637678
0.00374669
0.00327118
0.00374779
0.0032727
0.00318783
0.00312232
0.00318803
0.00312231
0.00322317
0.00322207
0.00322456
0.00322346
0.0031215
0.0031215
0.00312148
0.00312148
0.00322206
0.00322206
0.00322344
0.00322344
0.00312232
0.00318778
0.0031223
0.00318798
0.00322207
0.00322317
0.00322346
0.00322456
0.00637038
0.00678603
0.00637674
0.00680354
0.00327117
0.00374668
0.00327269
0.00374779
0.00675109
0.00635823
0.00676857
0.00636427
0.00374452
0.00326799
0.0037456
0.0032696
0.00318743
0.00312235
0.00318762
0.00312234
0.00322024
0.00321915
0.00322172
0.00322062
0.00312154
0.00312154
0.00312152
0.00312152
0.00321913
0.00321913
0.00322061
0.00322061
0.00312235
0.00318738
0.00312234
0.00318757
0.00321915
0.00322024
0.00322062
0.00322172
0.00635819
0.00675112
0.00636423
0.0067686
0.00326798
0.00374451
0.00326959
0.00374559
0.0067164
0.00634666
0.00673375
0.00635239
0.00374239
0.00326464
0.00374345
0.00326633
0.00318705
0.00312239
0.00318723
0.00312237
0.00321712
0.00321604
0.00321869
0.0032176
0.00312158
0.00312158
0.00312156
0.00312156
0.00321602
0.00321602
0.00321759
0.00321759
0.00312239
0.00318701
0.00312237
0.00318718
0.00321604
0.00321712
0.0032176
0.00321869
0.00634662
0.00671643
0.00635235
0.00673378
0.00326463
0.00374239
0.00326632
0.00374344
0.00668211
0.00633572
0.00669923
0.00634114
0.00374032
0.00326113
0.00374135
0.00326289
0.0031867
0.00312242
0.00318687
0.0031224
0.00321383
0.00321275
0.00321548
0.0032144
0.00312162
0.00312162
0.0031216
0.0031216
0.00321274
0.00321274
0.00321439
0.00321439
0.00312242
0.00318666
0.0031224
0.00318682
0.00321275
0.00321382
0.0032144
0.00321548
0.00633568
0.00668214
0.0063411
0.00669926
0.00326112
0.00374032
0.00326289
0.00374135
0.00664844
0.00632541
0.00666523
0.00633052
0.00373832
0.00325747
0.00373931
0.00325931
0.00318638
0.00312246
0.00318653
0.00312244
0.00321036
0.0032093
0.0032121
0.00321103
0.00312166
0.00312166
0.00312164
0.00312164
0.00320928
0.00320928
0.00321101
0.00321101
0.00312246
0.00318633
0.00312244
0.00318648
0.0032093
0.00321036
0.00321103
0.0032121
0.00632537
0.00664847
0.00633048
0.00666526
0.00325746
0.00373832
0.0032593
0.00373931
0.00661561
0.00631575
0.00663195
0.00632053
0.00373639
0.00325367
0.00373734
0.00325558
0.00318607
0.00312249
0.00318621
0.00312247
0.00320674
0.00320568
0.00320856
0.00320749
0.0031217
0.0031217
0.00312168
0.00312168
0.00320567
0.00320567
0.00320748
0.00320748
0.00312249
0.00318603
0.00312247
0.00318616
0.00320568
0.00320674
0.00320749
0.00320856
0.00631571
0.00661564
0.00632049
0.00663198
0.00325367
0.00373638
0.00325557
0.00373734
0.00658383
0.00630671
0.00659962
0.00631118
0.00373454
0.00324975
0.00373545
0.00325171
0.00318579
0.00312252
0.00318592
0.0031225
0.00320298
0.00320192
0.00320486
0.00320381
0.00312174
0.00312174
0.00312171
0.00312171
0.00320191
0.00320191
0.00320379
0.00320379
0.00312252
0.00318574
0.0031225
0.00318587
0.00320192
0.00320298
0.00320381
0.00320486
0.00630667
0.00658386
0.00631114
0.00659965
0.00324974
0.00373453
0.0032517
0.00373545
0.00655331
0.00629832
0.00656845
0.00630247
0.00373277
0.00324571
0.00373364
0.00324773
0.00318553
0.00312255
0.00318565
0.00312253
0.00319908
0.00319803
0.00320103
0.00319998
0.00312177
0.00312177
0.00312175
0.00312175
0.00319802
0.00319802
0.00319996
0.00319996
0.00312255
0.00318548
0.00312253
0.0031856
0.00319803
0.00319908
0.00319998
0.00320103
0.00629828
0.00655334
0.00630243
0.00656848
0.0032457
0.00373277
0.00324772
0.00373364
0.00652427
0.00629056
0.00653864
0.0062944
0.00373111
0.00324157
0.00373193
0.00324363
0.00318529
0.00312257
0.00318539
0.00312256
0.00319507
0.00319402
0.00319707
0.00319603
0.0031218
0.0031218
0.00312178
0.00312178
0.00319401
0.00319401
0.00319601
0.00319601
0.00312257
0.00318524
0.00312255
0.00318535
0.00319402
0.00319507
0.00319603
0.00319707
0.00629052
0.0065243
0.00629436
0.00653867
0.00324156
0.0037311
0.00324363
0.00373192
0.00649688
0.00628343
0.0065104
0.00628695
0.00372954
0.00323734
0.00373031
0.00323945
0.00318506
0.0031226
0.00318516
0.00312258
0.00319095
0.00318992
0.003193
0.00319197
0.00312182
0.00312182
0.0031218
0.0031218
0.0031899
0.0031899
0.00319195
0.00319195
0.0031226
0.00318502
0.00312257
0.00318511
0.00318992
0.00319095
0.00319197
0.003193
0.00628339
0.00649691
0.00628692
0.00651043
0.00323734
0.00372953
0.00323944
0.0037303
0.00647131
0.00627692
0.00648391
0.00628014
0.00372808
0.00323306
0.00372879
0.00323519
0.00318486
0.00312262
0.00318495
0.00312259
0.00318676
0.00318573
0.00318885
0.00318781
0.00312185
0.00312185
0.00312182
0.00312182
0.00318571
0.00318571
0.0031878
0.0031878
0.00312262
0.00318481
0.00312259
0.0031849
0.00318573
0.00318676
0.00318781
0.00318885
0.00627688
0.00647134
0.0062801
0.00648394
0.00323305
0.00372807
0.00323519
0.00372879
0.00644771
0.00627103
0.00645931
0.00627394
0.00372673
0.00322872
0.00372739
0.00323088
0.00318466
0.00312264
0.00318475
0.0031226
0.0031825
0.00318147
0.00318462
0.00318359
0.00312186
0.00312186
0.00312183
0.00312183
0.00318146
0.00318146
0.00318357
0.00318357
0.00312263
0.00318462
0.0031226
0.0031847
0.00318147
0.0031825
0.00318359
0.00318462
0.00627099
0.00644774
0.0062739
0.00645934
0.00322871
0.00372673
0.00323087
0.00372738
0.00642637
0.00626571
0.00643673
0.00626836
0.0037255
0.00322435
0.0037261
0.00322652
0.00318449
0.00312264
0.00318456
0.0031226
0.00317819
0.00317716
0.00318033
0.0031793
0.00312187
0.00312187
0.00312183
0.00312183
0.00317715
0.00317715
0.00317929
0.00317929
0.00312264
0.00318444
0.0031226
0.00318451
0.00317716
0.00317819
0.0031793
0.00318033
0.00626568
0.0064264
0.00626833
0.00643676
0.00322434
0.0037255
0.00322651
0.00372609
0.00642539
0.00625217
0.0064161
0.00626328
0.00372396
0.00321988
0.00372494
0.00322214
0.00318416
0.00312263
0.00318439
0.00312259
0.00317385
0.00317283
0.003176
0.00317498
0.00312187
0.00312187
0.00312183
0.00312183
0.00317281
0.00317281
0.00317496
0.00317496
0.00312263
0.00318411
0.00312259
0.00318434
0.00317283
0.00317385
0.00317498
0.003176
0.00625213
0.00642543
0.00626324
0.00641613
0.00321987
0.00372395
0.00322214
0.00372493
0.00758957
0.00689646
0.0069951
0.0064213
0.00758704
0.00689408
0.00699686
0.00641574
0.00321129
0.0031263
0.00328452
0.00321686
0.00321124
0.00312631
0.0032845
0.00321691
0.00312515
0.00312515
0.00321594
0.00321594
0.00312516
0.00312516
0.003216
0.003216
0.0031263
0.00321123
0.00321685
0.00328448
0.00312631
0.00321119
0.00321691
0.00328447
0.00689641
0.00758961
0.00642127
0.00699512
0.00689403
0.00758708
0.00641571
0.00699689
0.00760431
0.00690957
0.00761642
0.00691962
0.00759877
0.00690322
0.00761379
0.00691639
0.00320589
0.00312052
0.00320664
0.00312078
0.00320579
0.00312053
0.00320657
0.00312079
0.00311937
0.00311937
0.00311962
0.00311962
0.00311938
0.00311938
0.00311963
0.00311963
0.00312052
0.00320584
0.00312078
0.00320658
0.00312053
0.00320574
0.00312079
0.00320652
0.00690953
0.00760434
0.00691957
0.00761645
0.00690332
0.00759895
0.00691634
0.00761379
0.00757547
0.00688247
0.00759148
0.00689736
0.00756956
0.0068768
0.00758404
0.00689022
0.00320475
0.00312049
0.00320533
0.0031205
0.00320465
0.0031205
0.00320522
0.00312051
0.0031194
0.0031194
0.00311936
0.00311936
0.00311941
0.00311941
0.00311937
0.00311937
0.00312048
0.0032047
0.0031205
0.00320528
0.00312049
0.0032046
0.00312051
0.00320517
0.00688246
0.00757553
0.00689736
0.00759156
0.00687676
0.00756949
0.00689022
0.00758416
0.00754246
0.0068538
0.00755886
0.00686796
0.00753639
0.00684827
0.00755213
0.00686146
0.00320364
0.00312047
0.00320418
0.00312048
0.00320353
0.00312048
0.00320408
0.00312049
0.00311941
0.00311941
0.00311936
0.00311936
0.00311942
0.00311942
0.00311937
0.00311937
0.00312047
0.00320359
0.00312048
0.00320413
0.00312048
0.00320348
0.00312049
0.00320403
0.0068539
0.0075427
0.00686808
0.00755904
0.00684821
0.00753662
0.00686198
0.00755278
0.00751084
0.0068264
0.00752676
0.00684025
0.0075055
0.00682146
0.00752143
0.00683525
0.00320258
0.00312045
0.00320311
0.00312046
0.00320245
0.00312046
0.00320298
0.00312047
0.00311941
0.00311941
0.00311936
0.00311936
0.00311942
0.00311942
0.00311937
0.00311937
0.00312045
0.00320254
0.00312046
0.00320306
0.00312046
0.00320239
0.00312047
0.00320293
0.00682649
0.00751089
0.00684017
0.00752677
0.00682138
0.00750557
0.00683487
0.00752111
0.00747837
0.00679912
0.00749427
0.00681231
0.00747376
0.00679476
0.00748956
0.00680799
0.00320153
0.00312043
0.00320204
0.00312044
0.00320139
0.00312044
0.00320191
0.00312045
0.00311941
0.00311941
0.00311936
0.00311936
0.00311942
0.00311942
0.00311937
0.00311937
0.00312043
0.00320148
0.00312044
0.003202
0.00312044
0.00320134
0.00312045
0.00320185
0.00679958
0.00747903
0.00681279
0.00749478
0.00679438
0.00747328
0.00680733
0.00748902
0.00744779
0.00677371
0.00746307
0.0067864
0.00744261
0.00676891
0.00745833
0.00678191
0.00320052
0.00312042
0.00320102
0.00312043
0.00320037
0.00312043
0.00320088
0.00312044
0.00311941
0.00311941
0.00311936
0.00311936
0.00311942
0.00311942
0.00311937
0.00311937
0.00312041
0.00320047
0.00312043
0.00320097
0.00312042
0.00320032
0.00312043
0.00320083
0.00677378
0.00744787
0.00678651
0.00746337
0.00676894
0.00744273
0.0067819
0.0074583
0.00741705
0.00674896
0.0074322
0.00676101
0.00741175
0.00674406
0.00742701
0.00675626
0.00319954
0.0031204
0.00320002
0.00312041
0.00319939
0.00312041
0.00319987
0.00312042
0.00311941
0.00311941
0.00311936
0.00311936
0.00311942
0.00311942
0.00311937
0.00311937
0.0031204
0.00319949
0.00312041
0.00319997
0.00312041
0.00319934
0.00312042
0.00319982
0.00674919
0.0074175
0.00676144
0.00743271
0.00674404
0.0074118
0.00675625
0.00742709
0.00738767
0.00672568
0.00740251
0.00673742
0.00738189
0.00672061
0.0073966
0.00673208
0.0031986
0.00312039
0.00319906
0.0031204
0.00319846
0.0031204
0.00319892
0.00312041
0.00311941
0.00311941
0.00311936
0.00311936
0.00311942
0.00311942
0.00311937
0.00311937
0.00312038
0.00319855
0.00312039
0.00319901
0.00312039
0.00319841
0.0031204
0.00319887
0.00672559
0.00738772
0.0067374
0.00740266
0.00672047
0.0073819
0.00673214
0.00739678
0.00735788
0.00670268
0.00737288
0.00671418
0.00735205
0.00669763
0.00736698
0.00670901
0.00319769
0.00312037
0.00319814
0.00312038
0.00319756
0.00312038
0.003198
0.00312039
0.00311941
0.00311941
0.00311936
0.00311936
0.00311943
0.00311943
0.00311937
0.00311937
0.00312037
0.00319764
0.00312038
0.00319808
0.00312038
0.0031975
0.00312039
0.00319794
0.00670256
0.00735778
0.00671391
0.00737268
0.00669738
0.00735185
0.00670879
0.00736686
0.00732817
0.00668038
0.00734309
0.00669152
0.00732218
0.00667528
0.00733715
0.00668641
0.00319681
0.00312036
0.00319724
0.00312037
0.00319669
0.00312037
0.00319712
0.00312038
0.00311942
0.00311942
0.00311936
0.00311936
0.00311943
0.00311943
0.00311937
0.00311937
0.00312036
0.00319676
0.00312037
0.00319719
0.00312037
0.00319664
0.00312038
0.00319706
0.00668035
0.00732822
0.00669147
0.00734309
0.0066752
0.00732215
0.00668625
0.00733702
0.007298
0.00665837
0.00731316
0.00666933
0.00729187
0.00665327
0.00730707
0.00666421
0.00319596
0.00312035
0.00319638
0.00312036
0.00319585
0.00312036
0.00319626
0.00312037
0.00311942
0.00311942
0.00311936
0.00311936
0.00311943
0.00311943
0.00311937
0.00311937
0.00312035
0.00319591
0.00312035
0.00319633
0.00312036
0.0031958
0.00312036
0.00319621
0.00665832
0.00729803
0.00666929
0.0073132
0.00665323
0.0072919
0.00666416
0.0073071
0.00726757
0.00663696
0.00728282
0.00664759
0.00726128
0.00663183
0.00727664
0.00664249
0.00319514
0.00312034
0.00319554
0.00312034
0.00319503
0.00312035
0.00319543
0.00312035
0.00311942
0.00311942
0.00311937
0.00311937
0.00311944
0.00311944
0.00311938
0.00311938
0.00312034
0.00319509
0.00312034
0.00319549
0.00312035
0.00319498
0.00312035
0.00319538
0.00663692
0.0072676
0.00664754
0.00728286
0.00663178
0.00726131
0.00664245
0.00727667
0.007237
0.00661629
0.00725233
0.00662655
0.00723047
0.00661107
0.00724592
0.00662137
0.00319435
0.00312033
0.00319474
0.00312033
0.00319425
0.00312034
0.00319463
0.00312034
0.00311943
0.00311943
0.00311937
0.00311937
0.00311944
0.00311944
0.00311938
0.00311938
0.00312033
0.0031943
0.00312033
0.00319469
0.00312034
0.00319419
0.00312034
0.00319458
0.00661624
0.00723703
0.0066265
0.00725236
0.00661103
0.0072305
0.00662133
0.00724595
0.00720622
0.00659632
0.00722167
0.00660624
0.00719944
0.00659104
0.00721501
0.00660098
0.00319359
0.00312038
0.00319396
0.00312033
0.00319349
0.00312039
0.00319386
0.00312034
0.00311943
0.00311943
0.00311937
0.00311937
0.00311944
0.00311944
0.00311939
0.00311939
0.00312038
0.00319354
0.00312032
0.00319391
0.00312039
0.00319344
0.00312033
0.00319381
0.00659628
0.00720625
0.00660619
0.0072217
0.00659099
0.00719947
0.00660094
0.00721504
0.00717513
0.00657705
0.00719074
0.00658662
0.00716813
0.00657173
0.00718385
0.00658131
0.00319287
0.00312038
0.00319322
0.00312032
0.00319277
0.00312039
0.00319312
0.00312033
0.00311943
0.00311943
0.00311938
0.00311938
0.00311944
0.00311944
0.00311939
0.00311939
0.00312038
0.00319282
0.00312032
0.00319317
0.00312039
0.00319272
0.00312033
0.00319307
0.00657701
0.00717517
0.00658657
0.00719077
0.00657168
0.00716816
0.00658126
0.00718388
0.0071437
0.00655848
0.00715949
0.0065677
0.00713647
0.00655312
0.00715238
0.00656235
0.00319217
0.00312038
0.00319251
0.00312032
0.00319208
0.00312039
0.00319241
0.00312033
0.00311943
0.00311943
0.00311939
0.00311939
0.00311944
0.00311944
0.0031194
0.0031194
0.00312037
0.00319212
0.00312031
0.00319246
0.00312039
0.00319203
0.00312033
0.00319236
0.00655843
0.00714373
0.00656765
0.00715953
0.00655307
0.00713651
0.00656231
0.00715241
0.00711186
0.00654059
0.00712786
0.00654947
0.00710441
0.00653522
0.00712052
0.0065441
0.00319151
0.00312038
0.00319183
0.00312031
0.00319142
0.00312039
0.00319174
0.00312033
0.00311943
0.00311943
0.00311939
0.00311939
0.00311944
0.00311944
0.00311941
0.00311941
0.00312037
0.00319146
0.00312031
0.00319178
0.00312039
0.00319137
0.00312033
0.00319169
0.00654054
0.00711189
0.00654942
0.00712789
0.00653517
0.00710444
0.00654405
0.00712055
0.00707957
0.00652338
0.0070958
0.00653192
0.00707191
0.00651801
0.00708825
0.00652654
0.00319087
0.00312037
0.00319118
0.00312032
0.00319079
0.00312038
0.00319109
0.00312033
0.00311942
0.00311942
0.00311941
0.00311941
0.00311944
0.00311944
0.00311942
0.00311942
0.00312037
0.00319082
0.00312031
0.00319113
0.00312038
0.00319074
0.00312033
0.00319104
0.00652334
0.00707961
0.00653188
0.00709583
0.00651796
0.00707194
0.0065265
0.00708828
0.00704682
0.00650686
0.00706329
0.00651506
0.00703895
0.00650149
0.00705552
0.00650968
0.00319027
0.00312037
0.00319056
0.00312032
0.00319019
0.00312038
0.00319048
0.00312033
0.00311943
0.00311943
0.00311942
0.00311942
0.00311944
0.00311944
0.00311943
0.00311943
0.00312037
0.00319022
0.00312032
0.00319051
0.00312038
0.00319014
0.00312033
0.00319043
0.00650681
0.00704685
0.00651501
0.00706332
0.00650145
0.00703898
0.00650964
0.00705555
0.00701359
0.006491
0.00703029
0.00649887
0.00700553
0.00648566
0.00702232
0.00649351
0.0031897
0.00312037
0.00318997
0.00312033
0.00318962
0.00312038
0.00318989
0.00312034
0.00311945
0.00311945
0.00311944
0.00311944
0.00311946
0.00311946
0.00311945
0.00311945
0.00312037
0.00318965
0.00312033
0.00318992
0.00312038
0.00318957
0.00312034
0.00318984
0.00649096
0.00701362
0.00649882
0.00703033
0.00648562
0.00700556
0.00649347
0.00702236
0.00697991
0.00647583
0.00699684
0.00648335
0.00697167
0.00647052
0.00698868
0.00647803
0.00318916
0.00312036
0.00318942
0.00312034
0.00318909
0.00312038
0.00318934
0.00312035
0.00311947
0.00311947
0.00311946
0.00311946
0.00311949
0.00311949
0.00311947
0.00311947
0.00312036
0.00318911
0.00312034
0.00318937
0.00312038
0.00318903
0.00312035
0.00318929
0.00647578
0.00697994
0.00648331
0.00699687
0.00647048
0.0069717
0.00647799
0.00698871
0.00694582
0.00646132
0.00696295
0.00646851
0.00693742
0.00645607
0.00695462
0.00646324
0.00318865
0.00312037
0.00318889
0.00312035
0.00318858
0.00312038
0.00318882
0.00312037
0.0031195
0.0031195
0.00311949
0.00311949
0.00311951
0.00311951
0.0031195
0.0031195
0.00312037
0.0031886
0.00312035
0.00318884
0.00312038
0.00318853
0.00312037
0.00318877
0.00646128
0.00694586
0.00646847
0.00696298
0.00645603
0.00693745
0.00646319
0.00695465
0.0069114
0.00644749
0.00692869
0.00645434
0.00690286
0.00644231
0.00692021
0.00644913
0.00318817
0.00312039
0.0031884
0.00312038
0.00318811
0.0031204
0.00318833
0.00312039
0.00311953
0.00311953
0.00311952
0.00311952
0.00311955
0.00311955
0.00311953
0.00311953
0.00312039
0.00318812
0.00312037
0.00318835
0.0031204
0.00318806
0.00312039
0.00318828
0.00644744
0.00691144
0.0064543
0.00692872
0.00644226
0.00690289
0.00644909
0.00692024
0.00687674
0.00643432
0.00689413
0.00644085
0.00686804
0.00642919
0.00688551
0.00643569
0.00318773
0.00312042
0.00318794
0.0031204
0.00318766
0.00312043
0.00318787
0.00312042
0.00311957
0.00311957
0.00311955
0.00311955
0.00311959
0.00311959
0.00311957
0.00311957
0.00312042
0.00318768
0.0031204
0.00318789
0.00312043
0.00318761
0.00312042
0.00318782
0.00643428
0.00687677
0.00644081
0.00689416
0.00642914
0.00686807
0.00643565
0.00688554
0.00684196
0.00642182
0.0068594
0.00642802
0.00683312
0.00641674
0.00685062
0.00642291
0.00318731
0.00312046
0.00318751
0.00312044
0.00318725
0.00312047
0.00318744
0.00312045
0.00311962
0.00311962
0.00311959
0.00311959
0.00311963
0.00311963
0.00311961
0.00311961
0.00312046
0.00318726
0.00312043
0.00318746
0.00312047
0.0031872
0.00312045
0.00318739
0.00642178
0.00684199
0.00642798
0.00685943
0.0064167
0.00683315
0.00642287
0.00685066
0.00680721
0.00640999
0.00682461
0.00641585
0.00679825
0.00640496
0.00681571
0.00641079
0.00318693
0.0031205
0.00318711
0.00312048
0.00318687
0.00312051
0.00318705
0.00312049
0.00311967
0.00311967
0.00311964
0.00311964
0.00311968
0.00311968
0.00311965
0.00311965
0.0031205
0.00318688
0.00312047
0.00318706
0.00312051
0.00318682
0.00312049
0.003187
0.00640995
0.00680724
0.00641581
0.00682464
0.00640491
0.00679828
0.00641075
0.00681574
0.00677265
0.00639881
0.00678993
0.00640435
0.00676359
0.00639384
0.00678092
0.00639934
0.00318658
0.00312055
0.00318674
0.00312052
0.00318652
0.00312056
0.00318668
0.00312053
0.00311972
0.00311972
0.00311969
0.00311969
0.00311973
0.00311973
0.0031197
0.0031197
0.00312055
0.00318653
0.00312052
0.00318669
0.00312056
0.00318647
0.00312053
0.00318663
0.00639877
0.00677268
0.00640431
0.00678997
0.00639379
0.00676363
0.0063993
0.00678095
0.00673848
0.0063883
0.00675555
0.00639351
0.00672935
0.00638338
0.00674645
0.00638856
0.00318626
0.0031206