/*--------------------------------*- C++ -*----------------------------------*\
  =========                 |
  \\      /  F ield         | OpenFOAM: The Open Source CFD Toolbox
   \\    /   O peration     | Website:  https://openfoam.org
    \\  /    A nd           | Version:  9
     \\/     M anipulation  |
\*---------------------------------------------------------------------------*/
FoamFile
{
    format      ascii;
    class       surfaceScalarField;
    location    "0.1";
    object      phi;
}
// * * * * * * * * * * * * * * * * * * * * * * * * * * * * * * * * * * * * * //

dimensions      [0 3 -1 0 0 0 0];

internalField   nonuniform List<scalar> 
104044
(
6.07646e-08
-6.23125e-05
2.8134e-07
6.19614e-05
8.97341e-09
-6.0429e-05
-2.43816e-07
-2.49821e-08
6.07206e-05
3.79669e-08
3.99719e-08
9.41851e-08
3.06712e-08
-6.84007e-07
-1.70837e-08
-2.50674e-08
8.95091e-08
-6.08469e-05
6.10388e-05
-6.06709e-05
-4.00984e-08
6.05567e-05
6.3697e-08
-3.11109e-08
-1.7895e-09
-6.15044e-05
3.88046e-08
6.14184e-05
2.40509e-08
-6.14552e-05
4.21657e-08
-1.26268e-10
6.13939e-05
1.74678e-08
-8.7492e-10
-3.07634e-07
1.87269e-08
-3.01625e-07
-4.08504e-11
1.522e-08
-1.7757e-09
-6.09018e-05
6.09023e-05
-6.08193e-05
-1.17431e-10
6.08598e-05
-1.03683e-09
-4.35193e-11
1.20525e-13
-6.14431e-05
4.23938e-08
6.13834e-05
1.72169e-08
-6.14431e-05
4.23936e-08
1.26514e-10
6.13834e-05
1.7217e-08
4.11171e-14
-3.01422e-07
1.5069e-08
-3.01422e-07
4.09499e-11
1.5069e-08
1.54427e-13
-6.08067e-05
6.0849e-05
-6.08067e-05
1.17703e-10
6.0849e-05
5.98593e-14
4.36209e-11
1.78971e-09
-6.14553e-05
4.21651e-08
6.1394e-05
1.74683e-08
-6.15045e-05
3.8802e-08
2.49834e-08
6.14184e-05
2.40532e-08
8.7505e-10
-3.01625e-07
1.52199e-08
-3.07635e-07
1.70846e-08
1.87277e-08
1.7759e-09
-6.08193e-05
6.08598e-05
-6.09019e-05
4.00981e-08
6.09023e-05
1.03694e-09
3.11108e-08
-6.07637e-08
-6.04291e-05
-2.43817e-07
6.07207e-05
3.79681e-08
-6.23126e-05
2.81334e-07
6.19615e-05
8.97437e-09
-3.99715e-08
-6.84006e-07
-2.5068e-08
9.41842e-08
3.06711e-08
-8.95077e-08
-6.06709e-05
6.05567e-05
-6.0847e-05
6.10388e-05
-6.36963e-08
2.72477e-08
-6.17466e-05
5.94661e-08
6.16136e-05
4.63051e-08
-6.08696e-05
-7.41397e-08
-6.16854e-09
6.09623e-05
1.4853e-08
4.06572e-08
1.45576e-07
2.85394e-08
-1.1608e-07
-1.39449e-08
2.16848e-08
6.94939e-08
-6.11068e-05
6.10968e-05
-6.0552e-05
-2.92081e-08
6.05766e-05
7.75503e-08
-3.39051e-08
-2.20353e-09
-6.13505e-05
-4.58743e-10
6.12999e-05
4.71442e-08
-6.13449e-05
-4.61353e-09
-3.00631e-10
6.13087e-05
3.89452e-08
-2.23858e-09
2.37631e-08
3.23993e-08
2.18785e-08
-2.06533e-10
2.51254e-08
-2.76049e-09
-6.08944e-05
6.08675e-05
-6.08796e-05
-3.08287e-10
6.08726e-05
-2.2635e-09
-2.00269e-10
2.2095e-13
-6.1336e-05
-4.61757e-09
6.13018e-05
3.85445e-08
-6.1336e-05
-4.61802e-09
3.00854e-10
6.13018e-05
3.85451e-08
1.70177e-13
2.21068e-08
2.50145e-08
2.21065e-08
2.06811e-10
2.50148e-08
1.99441e-13
-6.08709e-05
6.0866e-05
-6.08709e-05
3.0857e-10
6.0866e-05
1.99998e-13
2.00576e-10
2.2036e-09
-6.13449e-05
-4.61468e-09
6.13087e-05
3.89468e-08
-6.13506e-05
-4.61011e-10
6.1681e-09
6.12999e-05
4.71478e-08
2.23869e-09
2.18777e-08
2.51262e-08
2.37602e-08
1.39456e-08
3.2402e-08
2.7606e-09
-6.08797e-05
6.08726e-05
-6.08945e-05
2.92067e-08
6.08675e-05
2.26365e-09
3.39044e-08
-2.72464e-08
-6.08697e-05
-7.41446e-08
6.09624e-05
1.48572e-08
-6.17467e-05
5.94638e-08
6.16137e-05
4.62756e-08
-4.06561e-08
-1.16081e-07
2.16839e-08
1.45562e-07
2.85419e-08
-6.94928e-08
-6.05521e-05
6.05766e-05
-6.11069e-05
6.10968e-05
-7.75491e-08
1.01294e-08
-6.15138e-05
5.8889e-11
6.14286e-05
7.50922e-08
-6.10162e-05
-5.99553e-08
4.1626e-09
6.10452e-05
3.69349e-08
1.7704e-08
2.07672e-08
6.13154e-08
-6.08989e-08
-7.39544e-10
2.55117e-08
5.50375e-08
-6.1056e-05
6.10011e-05
-6.06018e-05
-2.09376e-08
6.06178e-05
6.14944e-08
-2.46016e-08
-3.62572e-09
-6.12566e-05
-2.0553e-08
6.12146e-05
7.03223e-08
-6.12743e-05
-2.84711e-08
-5.13043e-10
6.12385e-05
6.11147e-08
-3.84864e-09
-1.19709e-08
5.83785e-08
-1.83204e-08
-4.19225e-10
4.92685e-08
-3.12705e-09
-6.08339e-05
6.07956e-05
-6.08517e-05
-5.06966e-10
6.08206e-05
-2.99404e-09
-4.04674e-10
2.92142e-12
-6.12703e-05
-2.81148e-08
6.12371e-05
6.0853e-08
-6.12703e-05
-2.81161e-08
5.21625e-10
6.12371e-05
6.08524e-08
2.27207e-13
-1.80692e-08
4.91408e-08
-1.80697e-08
4.18911e-10
4.91412e-08
3.98277e-13
-6.08475e-05
6.08189e-05
-6.08475e-05
5.06516e-10
6.08189e-05
1.87359e-13
4.04752e-10
3.62916e-09
-6.12743e-05
-2.84711e-08
6.12386e-05
6.11167e-08
-6.12566e-05
-2.05561e-08
-4.15884e-09
6.12146e-05
7.03226e-08
3.84891e-09
-1.83216e-08
4.92696e-08
-1.19738e-08
7.40307e-10
5.83803e-08
3.12636e-09
-6.08517e-05
6.08206e-05
-6.0834e-05
2.09323e-08
6.07956e-05
2.99401e-09
2.45997e-08
-1.01332e-08
-6.10162e-05
-5.99449e-08
6.10452e-05
3.69306e-08
-6.15139e-05
5.33859e-11
6.14287e-05
7.50956e-08
-1.77056e-08
-6.08966e-08
2.55114e-08
2.07697e-08
6.13101e-08
-5.50441e-08
-6.06018e-05
6.06179e-05
-6.10561e-05
6.10011e-05
-6.14947e-08
-1.43534e-09
-6.13525e-05
-2.56969e-08
6.12795e-05
1.00071e-07
-6.10544e-05
-6.63834e-08
1.18571e-08
6.10478e-05
5.96858e-08
3.7936e-09
-1.4713e-08
8.69918e-08
-6.16576e-08
8.88563e-09
4.73522e-08
4.28831e-08
-6.09383e-05
6.08697e-05
-6.06216e-05
-1.47966e-08
6.06129e-05
4.80485e-08
-1.73836e-08
-2.76869e-09
-6.11721e-05
-3.35025e-08
6.11263e-05
9.39694e-08
-6.11993e-05
-4.25852e-08
-5.67949e-10
6.11541e-05
8.55509e-08
-2.92763e-09
-2.69437e-08
8.12151e-08
-3.55505e-08
-5.48071e-10
7.24119e-08
-2.81595e-09
-6.07542e-05
6.07087e-05
-6.07826e-05
-6.32186e-10
6.07378e-05
-2.98832e-09
-5.23926e-10
-1.28031e-13
-6.11999e-05
-4.21868e-08
6.11567e-05
8.48444e-08
-6.11999e-05
-4.21868e-08
5.67673e-10
6.11567e-05
8.48444e-08
-3.94079e-13
-3.52052e-08
7.18516e-08
-3.52053e-08
5.45669e-10
7.18521e-08
-8.91957e-15
-6.07832e-05
6.07403e-05
-6.07832e-05
6.3154e-10
6.07404e-05
7.75809e-14
5.23921e-10
2.76954e-09
-6.11993e-05
-4.25854e-08
6.11542e-05
8.55506e-08
-6.11722e-05
-3.35045e-08
-1.18543e-08
6.11263e-05
9.397e-08
2.92753e-09
-3.55517e-08
7.24118e-08
-2.69466e-08
-8.8839e-09
8.12149e-08
2.81492e-09
-6.07826e-05
6.07378e-05
-6.07543e-05
1.47936e-08
6.07088e-05
2.98747e-09
1.73788e-08
1.43503e-09
-6.10544e-05
-6.63796e-08
6.10478e-05
5.96833e-08
-6.13526e-05
-2.57584e-08
6.12796e-05
1.00179e-07
-3.79625e-09
-6.16588e-08
4.73657e-08
-1.45572e-08
8.68477e-08
-4.2878e-08
-6.06216e-05
6.06129e-05
-6.09385e-05
6.08699e-05
-4.8054e-08
-9.49372e-09
-6.12071e-05
-4.10452e-08
6.1132e-05
1.25589e-07
-6.10273e-05
-7.77661e-08
1.54365e-08
6.09939e-05
8.62917e-08
-5.77956e-09
-3.3391e-08
1.11651e-07
-7.11536e-08
1.38033e-08
7.20262e-08
3.37489e-08
-6.07987e-05
6.07239e-05
-6.05917e-05
-1.07165e-08
6.05584e-05
3.76069e-08
-1.23572e-08
-2.20715e-09
-6.10769e-05
-4.62462e-08
6.10221e-05
1.18691e-07
-6.11036e-05
-5.55692e-08
-6.08334e-10
6.10464e-05
1.11162e-07
-2.50049e-09
-3.93689e-08
1.05057e-07
-4.85771e-08
-5.88191e-10
9.72225e-08
-2.1582e-09
-6.06594e-05
6.06046e-05
-6.06874e-05
-6.12578e-10
6.06303e-05
-2.34786e-09
-5.54606e-10
2.44358e-13
-6.11077e-05
-5.52034e-08
6.10519e-05
1.10462e-07
-6.11078e-05
-5.52032e-08
6.09097e-10
6.10519e-05
1.10462e-07
-1.87204e-14
-4.81879e-08
9.65106e-08
-4.81877e-08
5.87947e-10
9.65104e-08
2.00065e-13
-6.06916e-05
6.06358e-05
-6.06916e-05
6.1287e-10
6.06358e-05
4.65841e-13
5.55264e-10
2.20969e-09
-6.11036e-05
-5.5569e-08
6.10464e-05
1.11162e-07
-6.10769e-05
-4.6247e-08
-1.54355e-08
6.10221e-05
1.18695e-07
2.50131e-09
-4.85771e-08
9.72224e-08
-3.93714e-08
-1.38033e-08
1.0506e-07
2.15922e-09
-6.06874e-05
6.06303e-05
-6.06594e-05
1.07184e-08
6.06046e-05
2.3487e-09
1.23535e-08
9.5026e-09
-6.10274e-05
-7.77702e-08
6.09939e-05
8.6287e-08
-6.12072e-05
-4.10235e-08
6.11321e-05
1.25618e-07
5.78045e-09
-7.11522e-08
7.19996e-08
-3.35092e-08
1.11667e-07
-3.37385e-08
-6.05917e-05
6.05584e-05
-6.07987e-05
6.0724e-05
-3.76101e-08
-1.48907e-08
-6.10546e-05
-5.55206e-08
6.09722e-05
1.52724e-07
-6.09493e-05
-9.08333e-08
1.70311e-08
6.08936e-05
1.14687e-07
-1.23498e-08
-4.77222e-08
1.37522e-07
-8.32624e-08
1.62597e-08
9.9186e-08
2.7144e-08
-6.06463e-05
6.05637e-05
-6.05142e-05
-8.28341e-09
6.04588e-05
2.9866e-08
-9.2262e-09
-1.5031e-09
-6.09622e-05
-6.01081e-08
6.08953e-05
1.4553e-07
-6.09835e-05
-6.92213e-08
-8.51134e-10
6.09134e-05
1.38657e-07
-1.84326e-09
-5.24748e-08
1.30482e-07
-6.16539e-08
-6.23155e-10
1.23369e-07
-1.56803e-09
-6.05447e-05
6.04778e-05
-6.05674e-05
-6.7574e-10
6.04973e-05
-1.8063e-09
-5.99503e-10
8.20483e-13
-6.09899e-05
-6.90011e-08
6.09202e-05
1.37903e-07
-6.09899e-05
-6.90006e-08
8.53532e-10
6.09202e-05
1.37902e-07
3.81637e-13
-6.13387e-08
1.22681e-07
-6.13384e-08
6.24395e-10
1.22681e-07
7.03108e-13
-6.05738e-05
6.05042e-05
-6.05739e-05
6.78583e-10
6.05042e-05
3.40018e-13
6.00598e-10
1.50609e-09
-6.09835e-05
-6.92217e-08
6.09134e-05
1.38657e-07
-6.09622e-05
-6.01102e-08
-1.70303e-08
6.08954e-05
1.45535e-07
1.84585e-09
-6.1654e-08
1.23369e-07
-5.24764e-08
-1.62593e-08
1.30486e-07
1.56986e-09
-6.05675e-05
6.04974e-05
-6.05447e-05
8.2835e-09
6.04779e-05
1.80814e-09
9.22662e-09
1.48944e-08
-6.09494e-05
-9.08215e-08
6.08936e-05
1.14683e-07
-6.10547e-05
-5.55173e-08
6.09724e-05
1.52704e-07
1.23538e-08
-8.32467e-08
9.91725e-08
-4.77567e-08
1.37586e-07
-2.71333e-08
-6.05143e-05
6.04589e-05
-6.06464e-05
6.05637e-05
-2.98547e-08
-1.83359e-08
-6.08859e-05
-7.07541e-08
6.07929e-05
1.82102e-07
-6.08281e-05
-1.05322e-07
1.73952e-08
6.07519e-05
1.45791e-07
-1.66427e-08
-6.23126e-08
1.65325e-07
-9.69035e-08
1.71502e-08
1.28544e-07
2.24769e-08
-6.0477e-05
6.03838e-05
-6.03937e-05
-6.97414e-09
6.03178e-05
2.43492e-08
-7.44181e-09
-8.41889e-10
-6.08222e-05
-7.52591e-08
6.07408e-05
1.74869e-07
-6.08372e-05
-8.41465e-08
-8.36493e-10
6.07529e-05
1.68445e-07
-1.14899e-09
-6.68227e-08
1.58216e-07
-7.57388e-08
-8.81718e-10
1.51664e-07
-9.35035e-10
-6.04048e-05
6.03235e-05
-6.04212e-05
-8.09766e-10
6.03369e-05
-1.2466e-09
-8.39885e-10
8.1365e-13
-6.08438e-05
-8.39304e-08
6.07591e-05
1.67858e-07
-6.08438e-05
-8.39304e-08
8.38287e-10
6.07591e-05
1.67858e-07
1.01849e-12
-7.54935e-08
1.50942e-07
-7.54933e-08
8.8418e-10
1.50942e-07
8.35532e-13
-6.04278e-05
6.03431e-05
-6.04278e-05
8.11605e-10
6.03431e-05
1.30335e-12
8.43237e-10
8.42774e-10
-6.08372e-05
-8.41473e-08
6.07529e-05
1.68445e-07
-6.08223e-05
-7.52641e-08
-1.73968e-08
6.07409e-05
1.74875e-07
1.15116e-09
-7.57391e-08
1.51664e-07
-6.68261e-08
-1.71505e-08
1.58221e-07
9.35247e-10
-6.04212e-05
6.03369e-05
-6.04049e-05
6.96644e-09
6.03236e-05
1.25031e-09
7.4416e-09
1.83365e-08
-6.08282e-05
-1.05315e-07
6.0752e-05
1.45775e-07
-6.08859e-05
-7.07381e-08
6.07929e-05
1.82136e-07
1.66453e-08
-9.68962e-08
1.28537e-07
-6.23283e-08
1.65386e-07
-2.24861e-08
-6.03938e-05
6.03179e-05
-6.0477e-05
6.03838e-05
-2.43406e-08
-2.04101e-08
-6.06944e-05
-8.74634e-08
6.05877e-05
2.14559e-07
-6.06666e-05
-1.21402e-07
1.70576e-08
6.05706e-05
1.79959e-07
-1.93241e-08
-7.80035e-08
1.95824e-07
-1.1205e-07
1.71196e-08
1.60892e-07
1.92369e-08
-6.02853e-05
6.01786e-05
-6.02328e-05
-6.35791e-09
6.0137e-05
2.0507e-08
-6.53711e-09
-2.96682e-10
-6.06523e-05
-9.19375e-08
6.05543e-05
2.07294e-07
-6.06617e-05
-1.00581e-07
-6.28679e-10
6.05613e-05
2.01291e-07
-5.47651e-10
-8.25784e-08
1.88805e-07
-9.12565e-08
-7.34957e-10
1.82646e-07
-3.7844e-10
-6.02351e-05
6.01371e-05
-6.02457e-05
-6.16926e-10
6.01454e-05
-6.34172e-10
-7.17291e-10
2.61209e-13
-6.06672e-05
-1.00432e-07
6.05661e-05
2.00893e-07
-6.06672e-05
-1.00432e-07
6.29408e-10
6.05661e-05
2.00893e-07
5.13289e-13
-9.10802e-08
1.82177e-07
-9.10804e-08
7.36225e-10
1.82177e-07
1.80054e-13
-6.02513e-05
6.01502e-05
-6.02513e-05
6.175e-10
6.01503e-05
4.31237e-13
7.18362e-10
2.96778e-10
-6.06617e-05
-1.00582e-07
6.05613e-05
2.01292e-07
-6.06523e-05
-9.19421e-08
-1.70582e-08
6.05543e-05
2.073e-07
5.48295e-10
-9.12576e-08
1.82647e-07
-8.25836e-08
-1.71199e-08
1.88811e-07
3.78077e-10
-6.02458e-05
6.01454e-05
-6.02351e-05
6.35346e-09
6.01372e-05
6.33979e-10
6.53143e-09
2.04114e-08
-6.06667e-05
-1.21395e-07
6.05707e-05
1.79948e-07
-6.06944e-05
-8.75061e-08
6.05878e-05
2.14524e-07
1.9327e-08
-1.12045e-07
1.60892e-07
-7.804e-08
1.95881e-07
-1.92339e-08
-6.02329e-05
6.01371e-05
-6.02853e-05
6.01785e-05
-2.05056e-08
-2.15321e-08
-6.04745e-05
-1.05863e-07
6.03517e-05
2.50209e-07
-6.04657e-05
-1.39157e-07
1.63545e-08
6.03495e-05
2.17451e-07
-2.08556e-08
-9.54349e-08
2.29434e-07
-1.28763e-07
1.65676e-08
1.96288e-07
1.69786e-08
-6.00653e-05
5.99425e-05
-6.00322e-05
-6.12884e-09
5.99162e-05
1.78273e-08
-6.14746e-09
1.15514e-10
-6.04483e-05
-1.10318e-07
6.03317e-05
2.43148e-07
-6.04533e-05
-1.18724e-07
-3.80838e-10
6.03349e-05
2.3758e-07
-7.32828e-11
-9.98918e-08
2.22514e-07
-1.08331e-07
-5.01115e-10
2.16788e-07
4.3778e-11
-6.00312e-05
5.99148e-05
-6.00374e-05
-3.77983e-10
5.99191e-05
-1.48996e-10
-4.94103e-10
-6.83246e-14
-6.04574e-05
-1.18612e-07
6.03383e-05
2.37282e-07
-6.04574e-05
-1.18612e-07
3.80721e-10
6.03383e-05
2.37282e-07
2.79722e-15
-1.08204e-07
2.1645e-07
-1.08204e-07
5.01329e-10
2.1645e-07
-1.21257e-13
-6.00415e-05
5.99226e-05
-6.00416e-05
3.77754e-10
5.99226e-05
-1.16943e-14
4.94205e-10
-1.16017e-10
-6.04533e-05
-1.18724e-07
6.03349e-05
2.3758e-07
-6.04483e-05
-1.1032e-07
-1.63541e-08
6.03318e-05
2.4315e-07
7.30938e-11
-1.08331e-07
2.16789e-07
-9.98954e-08
-1.65671e-08
2.22518e-07
-4.4643e-11
-6.00374e-05
5.99191e-05
-6.00313e-05
6.12562e-09
5.99148e-05
1.48368e-10
6.14367e-09
2.15319e-08
-6.04657e-05
-1.39146e-07
6.03495e-05
2.17453e-07
-6.04746e-05
-1.05807e-07
6.03517e-05
2.50188e-07
2.08572e-08
-1.28753e-07
1.9629e-07
-9.53524e-08
2.29418e-07
-1.69764e-08
-6.00323e-05
5.99162e-05
-6.00654e-05
5.99426e-05
-1.78247e-08
-2.20364e-08
-6.02211e-05
-1.26246e-07
6.00793e-05
2.90086e-07
-6.0224e-05
-1.58875e-07
1.55147e-08
6.00865e-05
2.58828e-07
-2.16399e-08
-1.14641e-07
2.66947e-07
-1.47357e-07
1.57914e-08
2.35404e-07
1.53875e-08
-5.98119e-05
5.96702e-05
-5.97908e-05
-6.09165e-09
5.96534e-05
1.59649e-08
-6.03817e-09
4.02019e-10
-6.02062e-05
-1.30692e-07
6.0069e-05
2.83052e-07
-6.0208e-05
-1.38868e-07
-1.54207e-10
6.00695e-05
2.77891e-07
2.70586e-10
-1.19111e-07
2.60095e-07
-1.27323e-07
-2.52829e-10
2.54783e-07
3.38418e-10
-5.97894e-05
5.96523e-05
-5.97922e-05
-1.48243e-10
5.96539e-05
2.0375e-10
-2.549e-10
-1.86882e-13
-6.02108e-05
-1.38774e-07
6.00718e-05
2.77637e-07
-6.02108e-05
-1.38774e-07
1.53484e-10
6.00718e-05
2.77637e-07
-1.49647e-13
-1.27222e-07
2.54521e-07
-1.27222e-07
2.52351e-10
2.54521e-07
-2.02075e-13
-5.97951e-05
5.96562e-05
-5.97951e-05
1.47506e-10
5.96562e-05
-1.80255e-13
2.54384e-10
-4.03121e-10
-6.0208e-05
-1.38868e-07
6.00695e-05
2.77891e-07
-6.02063e-05
-1.30693e-07
-1.55147e-08
6.0069e-05
2.83053e-07
-2.71435e-10
-1.27323e-07
2.54783e-07
-1.19112e-07
-1.57914e-08
2.60096e-07
-3.39485e-10
-5.97923e-05
5.96539e-05
-5.97894e-05
6.08941e-09
5.96523e-05
-2.04729e-10
6.0355e-09
2.20359e-08
-6.0224e-05
-1.58875e-07
6.00865e-05
2.58825e-07
-6.0221e-05
-1.26273e-07
6.00792e-05
2.90096e-07
2.16385e-08
-1.47352e-07
2.35398e-07
-1.1465e-07
2.67018e-07
-1.53861e-08
-5.97909e-05
5.96535e-05
-5.9812e-05
5.96703e-05
-1.59634e-08
-2.21388e-08
-5.99285e-05
-1.48723e-07
5.97652e-05
3.34206e-07
-5.99392e-05
-1.8072e-07
1.46599e-08
5.97787e-05
3.04412e-07
-2.19086e-08
-1.35894e-07
3.08535e-07
-1.67861e-07
1.49357e-08
2.78309e-07
1.42322e-08
-5.95197e-05
5.93568e-05
-5.95062e-05
-6.12635e-09
5.93459e-05
1.46213e-08
-6.04471e-09
5.74732e-10
-5.99221e-05
-1.53215e-07
5.97621e-05
3.27315e-07
-5.99216e-05
-1.61175e-07
-3.51706e-11
5.97609e-05
3.22536e-07
4.96377e-10
-1.40281e-07
3.0162e-07
-1.48269e-07
-9.05354e-11
2.96708e-07
5.17118e-10
-5.95055e-05
5.93457e-05
-5.95061e-05
-2.90672e-11
5.93455e-05
4.36627e-10
-8.48555e-11
-2.53117e-13
-5.99234e-05
-1.61074e-07
5.97622e-05
3.22262e-07
-5.99234e-05
-1.61074e-07
3.43308e-11
5.97622e-05
3.22262e-07
-2.47583e-13
-1.48172e-07
2.96442e-07
-1.48172e-07
8.96832e-11
2.96442e-07
-2.56702e-13
-5.95079e-05
5.93468e-05
-5.95079e-05
2.82703e-11
5.93468e-05
-2.32124e-13
8.40247e-11
-5.75568e-10
-5.99217e-05
-1.61175e-07
5.97609e-05
3.22536e-07
-5.99221e-05
-1.53216e-07
-1.46598e-08
5.97621e-05
3.27315e-07
-4.97388e-10
-1.48269e-07
2.96708e-07
-1.40282e-07
-1.49356e-08
3.01621e-07
-5.1793e-10
-5.95061e-05
5.93455e-05
-5.95056e-05
6.12484e-09
5.93457e-05
-4.37602e-10
6.0429e-09
2.2139e-08
-5.99392e-05
-1.8072e-07
5.97788e-05
3.04409e-07
-5.99285e-05
-1.48723e-07
5.97652e-05
3.34166e-07
2.19087e-08
-1.67861e-07
2.78305e-07
-1.35913e-07
3.0851e-07
-1.42315e-08
-5.95063e-05
5.93459e-05
-5.95198e-05
5.93568e-05
-1.46202e-08
-2.19865e-08
-5.95918e-05
-1.7375e-07
5.94045e-05
3.83091e-07
-5.96076e-05
-2.04921e-07
1.3848e-08
5.94221e-05
3.54607e-07
-2.1879e-08
-1.5943e-07
3.54657e-07
-1.90705e-07
1.41119e-08
3.25805e-07
1.33681e-08
-5.91837e-05
5.89966e-05
-5.91749e-05
-6.17461e-09
5.89895e-05
1.36401e-08
-6.09272e-09
6.56641e-10
-5.95915e-05
-1.78065e-07
5.94064e-05
3.76297e-07
-5.95897e-05
-1.85811e-07
5.77775e-11
5.94043e-05
3.71846e-07
6.19339e-10
-1.63778e-07
3.47877e-07
-1.71555e-07
1.45616e-11
3.43311e-07
6.03919e-10
-5.91752e-05
5.89904e-05
-5.91745e-05
6.39865e-11
5.89892e-05
5.64765e-10
2.07743e-11
-1.31691e-13
-5.95906e-05
-1.85711e-07
5.94048e-05
3.71581e-07
-5.95906e-05
-1.85711e-07
-5.81999e-11
5.94048e-05
3.71581e-07
-2.10621e-13
-1.71455e-07
3.43043e-07
-1.71455e-07
-1.52047e-11
3.43043e-07
-1.57387e-13
-5.91754e-05
5.89897e-05
-5.91754e-05
-6.44166e-11
5.89897e-05
-2.10341e-13
-2.13984e-11
-6.57057e-10
-5.95898e-05
-1.85812e-07
5.94043e-05
3.71847e-07
-5.95915e-05
-1.78066e-07
-1.38476e-08
5.94065e-05
3.76297e-07
-6.19946e-10
-1.71556e-07
3.43312e-07
-1.63779e-07
-1.41116e-08
3.47878e-07
-6.0436e-10
-5.91745e-05
5.89892e-05
-5.91753e-05
6.1736e-09
5.89904e-05
-5.65379e-10
6.0915e-09
2.19867e-08
-5.96077e-05
-2.0492e-07
5.94221e-05
3.54605e-07
-5.95919e-05
-1.73749e-07
5.94045e-05
3.83082e-07
2.18793e-08
-1.90704e-07
3.25802e-07
-1.59427e-07
3.54637e-07
-1.33675e-08
-5.9175e-05
5.89896e-05
-5.91837e-05
5.89966e-05
-1.36395e-08
-2.16656e-08
-5.9206e-05
-2.01111e-07
5.89919e-05
4.36906e-07
-5.92252e-05
-2.31609e-07
1.30976e-08
5.90123e-05
4.09747e-07
-2.16278e-08
-1.85256e-07
4.05331e-07
-2.15806e-07
1.33321e-08
3.77792e-07
1.27039e-08
-5.87984e-05
5.85846e-05
-5.87927e-05
-6.21193e-09
5.85801e-05
1.28873e-08
-6.13444e-09
6.73184e-10
-5.92099e-05
-2.05376e-07
5.89975e-05
4.30267e-07
-5.92075e-05
-2.12921e-07
1.1778e-10
5.89949e-05
4.26114e-07
6.65027e-10
-1.89522e-07
3.9868e-07
-1.97089e-07
9.3298e-11
3.94421e-07
6.25013e-10
-5.87941e-05
5.85819e-05
-5.87926e-05
1.16824e-10
5.85802e-05
6.15315e-10
9.87321e-11
-1.84736e-13
-5.92077e-05
-2.12816e-07
5.89948e-05
4.2586e-07
-5.92077e-05
-2.12816e-07
-1.18101e-10
5.89948e-05
4.2586e-07
-9.96393e-14
-1.9699e-07
3.94168e-07
-1.9699e-07
-9.35081e-11
3.94168e-07
-1.44535e-13
-5.87928e-05
5.85801e-05
-5.87928e-05
-1.16958e-10
5.85801e-05
-1.30882e-13
-9.89961e-11
-6.73503e-10
-5.92076e-05
-2.12922e-07
5.89949e-05
4.26115e-07
-5.921e-05
-2.05377e-07
-1.30971e-08
5.89975e-05
4.30267e-07
-6.65305e-10
-1.9709e-07
3.94422e-07
-1.89523e-07
-1.33316e-08
3.9868e-07
-6.25321e-10
-5.87927e-05
5.85802e-05
-5.87941e-05
6.21113e-09
5.85819e-05
-6.15636e-10
6.13359e-09
2.16658e-08
-5.92252e-05
-2.31609e-07
5.90123e-05
4.09746e-07
-5.92061e-05
-2.01111e-07
5.8992e-05
4.36904e-07
2.1628e-08
-2.15805e-07
3.77791e-07
-1.85256e-07
4.05326e-07
-1.27034e-08
-5.87928e-05
5.85801e-05
-5.87985e-05
5.85847e-05
-1.28868e-08
-2.12402e-08
-5.87656e-05
-2.31127e-07
5.85219e-05
4.96095e-07
-5.8787e-05
-2.61045e-07
1.2414e-08
5.8544e-05
4.7031e-07
-2.12487e-08
-2.13608e-07
4.61149e-07
-2.43524e-07
1.26202e-08
4.34948e-07
1.21862e-08
-5.83587e-05
5.81154e-05
-5.8355e-05
-6.23314e-09
5.81124e-05
1.23056e-08
-6.16254e-09
6.45682e-10
-5.87726e-05
-2.35368e-07
5.85301e-05
4.89673e-07
-5.87699e-05
-2.42739e-07
1.41145e-10
5.85273e-05
4.85825e-07
6.56629e-10
-2.1783e-07
4.54684e-07
-2.2521e-07
1.29786e-10
4.50721e-07
6.00716e-10
-5.83573e-05
5.81151e-05
-5.83555e-05
1.41236e-10
5.81132e-05
6.10879e-10
1.29158e-10
-6.65371e-14
-5.87696e-05
-2.42614e-07
5.85268e-05
4.85528e-07
-5.87696e-05
-2.42614e-07
-1.41083e-10
5.85268e-05
4.85528e-07
-9.67458e-14
-2.25098e-07
4.50458e-07
-2.25098e-07
-1.29791e-10
4.50458e-07
-1.01652e-13
-5.83552e-05
5.81127e-05
-5.83552e-05
-1.41205e-10
5.81127e-05
-9.15504e-14
-1.29164e-10
-6.45912e-10
-5.87699e-05
-2.42739e-07
5.85274e-05
4.85826e-07
-5.87726e-05
-2.35369e-07
-1.24134e-08
5.85301e-05
4.89673e-07
-6.56866e-10
-2.25211e-07
4.50722e-07
-2.17831e-07
-1.26197e-08
4.54685e-07
-6.00994e-10
-5.83555e-05
5.81132e-05
-5.83573e-05
6.23247e-09
5.81151e-05
-6.11147e-10
6.16183e-09
2.12403e-08
-5.8787e-05
-2.61044e-07
5.85441e-05
4.70309e-07
-5.87657e-05
-2.31128e-07
5.85219e-05
4.96095e-07
2.12489e-08
-2.43523e-07
4.34947e-07
-2.13609e-07
4.61148e-07
-1.21856e-08
-5.8355e-05
5.81124e-05
-5.83588e-05
5.81154e-05
-1.2305e-08
-2.07212e-08
-5.8265e-05
-2.63632e-07
5.79891e-05
5.6026e-07
-5.82878e-05
-2.93021e-07
1.17776e-08
5.80124e-05
5.35927e-07
-2.07775e-08
-2.44557e-07
5.2221e-07
-2.7392e-07
1.19675e-08
4.97406e-07
1.17603e-08
-5.7859e-05
5.75836e-05
-5.78565e-05
-6.2639e-09
5.75815e-05
1.18426e-08
-6.17094e-09
5.93542e-10
-5.82742e-05
-2.67829e-07
5.79991e-05
5.54087e-07
-5.82715e-05
-2.75048e-07
1.4992e-10
5.79964e-05
5.50545e-07
6.15653e-10
-2.48751e-07
5.15979e-07
-2.55966e-07
1.45769e-10
5.12323e-07
5.48631e-10
-5.78596e-05
5.7585e-05
-5.78577e-05
1.52845e-10
5.7583e-05
5.71586e-10
1.47107e-10
-1.23043e-13
-5.82708e-05
-2.74909e-07
5.79956e-05
5.5021e-07
-5.82708e-05
-2.74909e-07
-1.499e-10
5.79956e-05
5.5021e-07
-1.00628e-13
-2.55833e-07
5.12006e-07
-2.55833e-07
-1.45719e-10
5.12005e-07
-1.65452e-13
-5.7857e-05
5.75822e-05
-5.7857e-05
-1.52867e-10
5.75823e-05
-1.34121e-13
-1.47123e-10
-5.93932e-10
-5.82715e-05
-2.75049e-07
5.79964e-05
5.50546e-07
-5.82742e-05
-2.6783e-07
-1.17771e-08
5.79991e-05
5.54088e-07
-6.15951e-10
-2.55967e-07
5.12324e-07
-2.48752e-07
-1.1967e-08
5.1598e-07
-5.4905e-10
-5.78577e-05
5.7583e-05
-5.78596e-05
6.26275e-09
5.7585e-05
-5.71955e-10
6.1703e-09
2.07213e-08
-5.82879e-05
-2.9302e-07
5.80125e-05
5.35926e-07
-5.82651e-05
-2.63632e-07
5.79892e-05
5.6026e-07
2.07777e-08
-2.73919e-07
4.97405e-07
-2.44557e-07
5.2221e-07
-1.17598e-08
-5.78565e-05
5.75815e-05
-5.7859e-05
5.75837e-05
-1.18421e-08
-2.01604e-08
-5.76989e-05
-2.98942e-07
5.73879e-05
6.30092e-07
-5.77226e-05
-3.27888e-07
1.11963e-08
5.74119e-05
6.07247e-07
-2.02446e-08
-2.78173e-07
5.8864e-07
-3.07068e-07
1.13681e-08
5.65293e-07
1.14149e-08
-5.7294e-05
5.69836e-05
-5.72921e-05
-6.33405e-09
5.6982e-05
1.14658e-08
-6.2417e-09
5.27918e-10
-5.77096e-05
-3.03083e-07
5.73991e-05
6.24189e-07
-5.77069e-05
-3.10178e-07
1.46186e-10
5.73965e-05
6.20931e-07
5.56408e-10
-2.82313e-07
5.82665e-07
-2.894e-07
1.47911e-10
5.79302e-07
4.81524e-10
-5.72959e-05
5.6986e-05
-5.7294e-05
1.53269e-10
5.69841e-05
5.11269e-10
1.52699e-10
-2.32515e-13
-5.77061e-05
-3.10044e-07
5.73957e-05
6.20595e-07
-5.77061e-05
-3.10043e-07
-1.46354e-10
5.73957e-05
6.20594e-07
-1.86415e-13
-2.89262e-07
5.78965e-07
-2.89262e-07
-1.47989e-10
5.78965e-07
-2.88306e-13
-5.72931e-05
5.69832e-05
-5.72931e-05
-1.53491e-10
5.69833e-05
-2.20731e-13
-1.52827e-10
-5.28556e-10
-5.77069e-05
-3.10179e-07
5.73966e-05
6.20932e-07
-5.77096e-05
-3.03084e-07
-1.1196e-08
5.73992e-05
6.24189e-07
-5.56919e-10
-2.89401e-07
5.79303e-07
-2.82314e-07
-1.13677e-08
5.82665e-07
-4.82214e-10
-5.7294e-05
5.69842e-05
-5.72959e-05
6.33282e-09
5.6986e-05
-5.11827e-10
6.24053e-09
2.01604e-08
-5.77226e-05
-3.27887e-07
5.74119e-05
6.07246e-07
-5.76989e-05
-2.98943e-07
5.73879e-05
6.30092e-07
2.02446e-08
-3.07067e-07
5.65292e-07
-2.78174e-07
5.88641e-07
-1.14145e-08
-5.72922e-05
5.6982e-05
-5.7294e-05
5.69837e-05
-1.14654e-08
-1.95706e-08
-5.70615e-05
-3.36978e-07
5.67127e-05
7.05425e-07
-5.70857e-05
-3.65511e-07
1.06597e-08
5.67369e-05
6.84057e-07
-1.96727e-08
-3.14492e-07
6.60521e-07
-3.42968e-07
1.08153e-08
6.38648e-07
1.11246e-08
-5.6658e-05
5.63099e-05
-5.66565e-05
-6.37041e-09
5.63084e-05
1.11536e-08
-6.29367e-09
4.55432e-10
-5.70732e-05
-3.41074e-07
5.67247e-05
6.99816e-07
-5.70707e-05
-3.48039e-07
1.33565e-10
5.67223e-05
6.96809e-07
4.87325e-10
-3.18581e-07
6.54825e-07
-3.25543e-07
1.39383e-10
6.51728e-07
4.07155e-10
-5.66607e-05
5.63128e-05
-5.66589e-05
1.46516e-10
5.63111e-05
4.40478e-10
1.48998e-10
-3.49481e-13
-5.70698e-05
-3.47925e-07
5.67214e-05
6.96502e-07
-5.70698e-05
-3.47925e-07
-1.33982e-10
5.67214e-05
6.96501e-07
-2.97425e-13
-3.25418e-07
6.51407e-07
-3.25418e-07
-1.39683e-10
6.51406e-07
-3.9238e-13
-5.6658e-05
5.63102e-05
-5.6658e-05
-1.4699e-10
5.63102e-05
-3.45134e-13
-1.49358e-10
-4.56336e-10
-5.70707e-05
-3.4804e-07
5.67223e-05
6.9681e-07
-5.70733e-05
-3.41075e-07
-1.06596e-08
5.67247e-05
6.99816e-07
-4.88091e-10
-3.25544e-07
6.51729e-07
-3.18582e-07
-1.08151e-08
6.54825e-07
-4.0812e-10
-5.66589e-05
5.63111e-05
-5.66607e-05
6.36905e-09
5.63129e-05
-4.41306e-10
6.2924e-09
1.95705e-08
-5.70857e-05
-3.6551e-07
5.6737e-05
6.84057e-07
-5.70616e-05
-3.36978e-07
5.67127e-05
7.05425e-07
1.96727e-08
-3.42967e-07
6.38647e-07
-3.14492e-07
6.60522e-07
-1.11243e-08
-5.66565e-05
5.63085e-05
-5.6658e-05
5.63099e-05
-1.11533e-08
-1.89703e-08
-5.63474e-05
-3.77695e-07
5.59579e-05
7.86182e-07
-5.63717e-05
-4.05821e-07
1.01642e-08
5.59822e-05
7.66233e-07
-1.90817e-08
-3.53496e-07
7.3783e-07
-3.8157e-07
1.03049e-08
7.17395e-07
1.08718e-08
-5.59455e-05
5.55569e-05
-5.59441e-05
-6.37882e-09
5.55555e-05
1.08869e-08
-6.31535e-09
3.81233e-10
-5.63597e-05
-3.81759e-07
5.59703e-05
7.8088e-07
-5.63574e-05
-3.88582e-07
1.14742e-10
5.59681e-05
7.78088e-07
4.14172e-10
-3.57549e-07
7.32433e-07
-3.64376e-07
1.23572e-10
7.29567e-07
3.3126e-10
-5.59486e-05
5.55601e-05
-5.59469e-05
1.37471e-10
5.55586e-05
3.65416e-10
1.40581e-10
-5.20502e-13
-5.63565e-05
-3.88499e-07
5.59673e-05
7.77825e-07
-5.63565e-05
-3.88499e-07
-1.15449e-10
5.59673e-05
7.77825e-07
-4.35138e-13
-3.64278e-07
7.29283e-07
-3.64278e-07
-1.24138e-10
7.29283e-07
-4.82943e-13
-5.59461e-05
5.55577e-05
-5.59461e-05
-1.38184e-10
5.55577e-05
-4.24117e-13
-1.41186e-10
-3.82408e-10
-5.63574e-05
-3.88583e-07
5.59681e-05
7.7809e-07
-5.63597e-05
-3.8176e-07
-1.01644e-08
5.59704e-05
7.8088e-07
-4.15203e-10
-3.64377e-07
7.29568e-07
-3.5755e-07
-1.03049e-08
7.32433e-07
-3.3249e-10
-5.5947e-05
5.55586e-05
-5.59486e-05
6.3773e-09
5.55602e-05
-3.66512e-10
6.31393e-09
1.89701e-08
-5.63718e-05
-4.0582e-07
5.59822e-05
7.66232e-07
-5.63475e-05
-3.77696e-07
5.59579e-05
7.86182e-07
1.90816e-08
-3.81569e-07
7.17395e-07
-3.53497e-07
7.3783e-07
-1.08716e-08
-5.59441e-05
5.55555e-05
-5.59455e-05
5.5557e-05
-1.08867e-08
-1.83719e-08
-5.55512e-05
-4.20888e-07
5.51185e-05
8.71949e-07
-5.55754e-05
-4.48589e-07
9.70524e-09
5.51426e-05
8.53324e-07
-1.84816e-08
-3.94956e-07
8.201e-07
-4.22613e-07
9.83015e-09
8.01031e-07
1.06393e-08
-5.51513e-05
5.47198e-05
-5.51498e-05
-6.36241e-09
5.47183e-05
1.06454e-08
-6.30914e-09
3.08547e-10
-5.55638e-05
-4.24921e-07
5.51312e-05
8.66951e-07
-5.55617e-05
-4.31593e-07
9.20676e-11
5.51291e-05
8.64343e-07
3.4109e-10
-3.98978e-07
8.15009e-07
-4.05658e-07
1.02606e-10
8.1234e-07
2.58288e-10
-5.51546e-05
5.4723e-05
-5.51531e-05
1.25689e-10
5.47216e-05
2.91305e-10
1.31226e-10
-7.29894e-13
-5.55609e-05
-4.31543e-07
5.51284e-05
8.64126e-07
-5.55609e-05
-4.31542e-07
-9.30796e-11
5.51284e-05
8.64126e-07
-6.24358e-13
-4.05592e-07
8.12103e-07
-4.05592e-07
-1.03469e-10
8.12103e-07
-6.89342e-13
-5.51522e-05
5.47208e-05
-5.51523e-05
-1.26818e-10
5.47208e-05
-5.52792e-13
-1.32106e-10
-3.10005e-10
-5.55617e-05
-4.31594e-07
5.51292e-05
8.64344e-07
-5.55638e-05
-4.24922e-07
-9.70561e-09
5.51312e-05
8.66951e-07
-3.42392e-10
-4.05658e-07
8.12342e-07
-3.98979e-07
-9.83039e-09
8.15009e-07
-2.59775e-10
-5.51531e-05
5.47216e-05
-5.51546e-05
6.36072e-09
5.4723e-05
-2.92646e-10
6.30757e-09
1.83715e-08
-5.55755e-05
-4.48587e-07
5.51427e-05
8.53323e-07
-5.55513e-05
-4.20888e-07
5.51186e-05
8.71949e-07
1.84813e-08
-4.22612e-07
8.0103e-07
-3.94957e-07
8.201e-07
-1.06393e-08
-5.51499e-05
5.47183e-05
-5.51514e-05
5.47198e-05
-1.06454e-08
-1.77938e-08
-5.46678e-05
-4.66486e-07
5.41895e-05
9.62601e-07
-5.46917e-05
-4.93738e-07
9.28275e-09
5.42132e-05
9.45169e-07
-1.79017e-08
-4.39027e-07
9.07673e-07
-4.66259e-07
9.39623e-09
8.89849e-07
1.04181e-08
-5.42703e-05
5.37934e-05
-5.42687e-05
-6.32788e-09
5.37917e-05
1.04246e-08
-6.28476e-09
2.39233e-10
-5.46804e-05
-4.70484e-07
5.42021e-05
9.57883e-07
-5.46785e-05
-4.77004e-07
6.94053e-11
5.42003e-05
9.5543e-07
2.70655e-10
-4.43018e-07
9.02871e-07
-4.49549e-07
7.97415e-11
9.00369e-07
1.88794e-10
-5.42735e-05
5.37965e-05
-5.42722e-05
1.04626e-10
5.37952e-05
2.20856e-10
1.14731e-10
-9.09166e-13
-5.46778e-05
-4.76976e-07
5.41996e-05
9.55257e-07
-5.46778e-05
-4.76976e-07
-7.06353e-11
5.41996e-05
9.55256e-07
-8.25232e-13
-4.49512e-07
9.00177e-07
-4.49512e-07
-8.08671e-11
9.00177e-07
-8.9885e-13
-5.42714e-05
5.37946e-05
-5.42714e-05
-1.06182e-10
5.37946e-05
-7.90155e-13
-1.16096e-10
-2.40923e-10
-5.46785e-05
-4.77004e-07
5.42003e-05
9.55431e-07
-5.46805e-05
-4.70484e-07
-9.28333e-09
5.42021e-05
9.57883e-07
-2.72223e-10
-4.4955e-07
9.00371e-07
-4.43019e-07
-9.39669e-09
9.02871e-07
-1.90511e-10
-5.42722e-05
5.37953e-05
-5.42735e-05
6.32606e-09
5.37965e-05
-2.22449e-10
6.28303e-09
1.77933e-08
-5.46918e-05
-4.93736e-07
5.42133e-05
9.45168e-07
-5.46679e-05
-4.66486e-07
5.41895e-05
9.62601e-07
1.79013e-08
-4.66258e-07
8.89848e-07
-4.39027e-07
9.07673e-07
-1.04182e-08
-5.42687e-05
5.37918e-05
-5.42704e-05
5.37935e-05
-1.04246e-08
-1.7244e-08
-5.36925e-05
-5.14205e-07
5.31663e-05
1.05757e-06
-5.3716e-05
-5.40976e-07
8.89301e-09
5.31897e-05
1.04119e-06
-1.73417e-08
-4.85243e-07
9.99601e-07
-5.12014e-07
8.99409e-09
9.8289e-07
1.01973e-08
-5.3298e-05
5.27736e-05
-5.32961e-05
-6.27858e-09
5.27717e-05
1.02063e-08
-6.24258e-09
1.75076e-10
-5.3705e-05
-5.18154e-07
5.31788e-05
1.0531e-06
-5.37033e-05
-5.24522e-07
4.89412e-11
5.31771e-05
1.05077e-06
2.04377e-10
-4.89193e-07
9.9506e-07
-4.95573e-07
5.82601e-11
9.927e-07
1.2434e-10
-5.33009e-05
5.27763e-05
-5.32997e-05
8.07109e-11
5.27753e-05