/*--------------------------------*- C++ -*----------------------------------*\
  =========                 |
  \\      /  F ield         | OpenFOAM: The Open Source CFD Toolbox
   \\    /   O peration     | Website:  https://openfoam.org
    \\  /    A nd           | Version:  9
     \\/     M anipulation  |
\*---------------------------------------------------------------------------*/
FoamFile
{
    format      ascii;
    class       volVectorField;
    location    "0.1";
    object      U;
}
// * * * * * * * * * * * * * * * * * * * * * * * * * * * * * * * * * * * * * //

dimensions      [0 1 -1 0 0 0 0];

internalField   nonuniform List<vector> 
36360
(
(0.0005535 -0.117143 -0.501068)
(-0.000723363 -0.115958 2.10146e-05)
(0.000372527 -0.118723 -0.50209)
(-0.000911958 -0.113354 1.3445e-05)
(-0.00154534 -0.114966 -0.501259)
(0.00162183 -0.115897 2.90393e-05)
(-0.000695543 -0.115563 -0.502216)
(0.00328181 -0.116369 1.9141e-05)
(-8.99485e-05 -0.116788 -1.57257e-05)
(-8.55345e-05 -0.116702 -1.12522e-06)
(-0.000249516 -0.116345 -1.0552e-05)
(-0.0002397 -0.116227 -5.38037e-07)
(-6.23949e-06 -0.115735 -2.45942e-05)
(-2.05382e-05 -0.115602 -1.11188e-06)
(0.00130521 -0.11635 -1.88874e-05)
(0.00127469 -0.116127 -6.34715e-07)
(-8.58369e-05 -0.11668 -7.40913e-08)
(-8.58368e-05 -0.11668 7.43742e-08)
(-0.000239755 -0.116203 -2.39753e-08)
(-0.000239755 -0.116203 2.4083e-08)
(-2.08523e-05 -0.115579 -6.88776e-08)
(-2.08518e-05 -0.115579 6.92228e-08)
(0.00127407 -0.116101 -2.55327e-08)
(0.00127407 -0.116101 2.56628e-08)
(-8.5534e-05 -0.116702 1.12548e-06)
(-8.99452e-05 -0.116788 1.57265e-05)
(-0.0002397 -0.116227 5.38172e-07)
(-0.000249515 -0.116345 1.05526e-05)
(-2.05371e-05 -0.115602 1.11217e-06)
(-6.23563e-06 -0.115736 2.45942e-05)
(0.00127469 -0.116127 6.34839e-07)
(0.00130521 -0.11635 1.88874e-05)
(-0.000723361 -0.115959 -2.10133e-05)
(0.000553508 -0.117144 0.501068)
(-0.000911961 -0.113354 -1.34443e-05)
(0.000372527 -0.118723 0.50209)
(0.00162183 -0.115897 -2.90387e-05)
(-0.00154534 -0.114967 0.501259)
(0.00328181 -0.11637 -1.91407e-05)
(-0.000695543 -0.115564 0.502216)
(0.000770915 -0.117227 -0.501483)
(-0.000751166 -0.11571 1.26306e-05)
(0.000706179 -0.117472 -0.50103)
(-0.000729647 -0.115596 1.6013e-05)
(-0.00103204 -0.116136 -0.501665)
(0.00107528 -0.115046 2.41426e-05)
(-0.0012727 -0.116027 -0.501681)
(0.00120277 -0.115005 2.61677e-05)
(2.93864e-05 -0.116513 -5.31315e-06)
(3.4124e-05 -0.116518 -1.79506e-06)
(-4.24057e-06 -0.116654 -9.70488e-06)
(-5.95728e-07 -0.116627 -1.46557e-06)
(-2.67762e-05 -0.115673 -1.91441e-05)
(-1.6574e-05 -0.115665 -1.83865e-06)
(-6.03471e-05 -0.115678 -2.16695e-05)
(-5.9352e-05 -0.115633 -1.47671e-06)
(3.36951e-05 -0.116504 -1.80025e-07)
(3.36962e-05 -0.116504 1.80373e-07)
(-9.11727e-07 -0.116608 -1.23704e-07)
(-9.1142e-07 -0.116608 1.24042e-07)
(-1.61676e-05 -0.115651 -1.8464e-07)
(-1.61672e-05 -0.115651 1.85e-07)
(-5.96816e-05 -0.115614 -1.1993e-07)
(-5.96811e-05 -0.115614 1.20324e-07)
(3.41269e-05 -0.116519 1.79525e-06)
(2.93925e-05 -0.116513 5.31294e-06)
(-5.94632e-07 -0.116627 1.4658e-06)
(-4.23655e-06 -0.116654 9.70535e-06)
(-1.65728e-05 -0.115665 1.83889e-06)
(-2.67721e-05 -0.115673 1.91433e-05)
(-5.93505e-05 -0.115633 1.47698e-06)
(-6.03429e-05 -0.115678 2.16692e-05)
(-0.000751161 -0.11571 -1.26301e-05)
(0.000770915 -0.117227 0.501483)
(-0.00072965 -0.115596 -1.6012e-05)
(0.000706206 -0.117472 0.50103)
(0.0010753 -0.115046 -2.41428e-05)
(-0.00103203 -0.116136 0.501665)
(0.00120277 -0.115005 -2.61673e-05)
(-0.00127268 -0.116027 0.501681)
(0.000850196 -0.116795 -0.501911)
(-0.000746678 -0.11596 8.3647e-06)
(0.000817062 -0.116965 -0.501927)
(-0.000749858 -0.115882 1.03662e-05)
(-0.000882179 -0.115953 -0.501623)
(0.0010242 -0.11516 2.08522e-05)
(-0.000929244 -0.11605 -0.501638)
(0.00103026 -0.115121 2.25576e-05)
(6.19769e-05 -0.116348 3.2237e-07)
(7.149e-05 -0.116387 -2.17728e-06)
(4.71526e-05 -0.116428 -2.22316e-06)
(5.37617e-05 -0.116453 -2.02745e-06)
(9.44252e-06 -0.115548 -1.47069e-05)
(2.18994e-05 -0.115589 -2.22085e-06)
(-3.8511e-06 -0.115618 -1.6862e-05)
(8.77242e-06 -0.11564 -2.07694e-06)
(7.09414e-05 -0.116382 -3.21976e-07)
(7.09423e-05 -0.116382 3.21e-07)
(5.32327e-05 -0.116443 -2.56057e-07)
(5.32337e-05 -0.116443 2.56153e-07)
(2.18719e-05 -0.115583 -3.09595e-07)
(2.18729e-05 -0.115583 3.09773e-07)
(8.59642e-06 -0.11563 -2.47228e-07)
(8.59674e-06 -0.11563 2.47478e-07)
(7.14923e-05 -0.116387 2.17488e-06)
(6.19808e-05 -0.116348 -3.19128e-07)
(5.37642e-05 -0.116453 2.02736e-06)
(4.71576e-05 -0.116428 2.22373e-06)
(2.18995e-05 -0.115589 2.22016e-06)
(9.44458e-06 -0.115548 1.47032e-05)
(8.77379e-06 -0.11564 2.07697e-06)
(-3.84799e-06 -0.115618 1.68608e-05)
(-0.000746681 -0.11596 -8.36592e-06)
(0.000850262 -0.116795 0.501911)
(-0.000749862 -0.115883 -1.03668e-05)
(0.000816985 -0.116966 0.501927)
(0.00102415 -0.11516 -2.08576e-05)
(-0.000882239 -0.115953 0.501678)
(0.00103025 -0.115121 -2.25589e-05)
(-0.000929186 -0.11605 0.501638)
(0.00090843 -0.116502 -0.501876)
(-0.000741291 -0.115998 4.92988e-06)
(0.000880659 -0.116641 -0.501892)
(-0.000744314 -0.115996 6.57014e-06)
(-0.000875906 -0.115718 -0.50206)
(0.00104893 -0.115174 1.74986e-05)
(-0.000871514 -0.115844 -0.501595)
(0.00103352 -0.115178 1.91285e-05)
(9.03779e-05 -0.116184 4.10568e-06)
(0.000104551 -0.116236 -2.14438e-06)
(7.6049e-05 -0.116268 2.3807e-06)
(8.80732e-05 -0.116316 -2.19776e-06)
(2.60141e-05 -0.11539 -1.09828e-05)
(3.50715e-05 -0.115445 -2.14943e-06)
(1.83204e-05 -0.115473 -1.2742e-05)
(2.90323e-05 -0.115523 -2.27331e-06)
(0.000103926 -0.116239 -4.18447e-07)
(0.000103926 -0.116239 4.18127e-07)
(8.75239e-05 -0.116315 -3.7251e-07)
(8.75244e-05 -0.116315 3.7279e-07)
(3.52597e-05 -0.115448 -3.94128e-07)
(3.52601e-05 -0.115448 3.93628e-07)
(2.92591e-05 -0.115522 -3.73999e-07)
(2.92591e-05 -0.115522 3.74067e-07)
(0.000104551 -0.116236 2.14462e-06)
(9.03803e-05 -0.116184 -4.10429e-06)
(8.80741e-05 -0.116316 2.19872e-06)
(7.60517e-05 -0.116268 -2.37992e-06)
(3.50724e-05 -0.115445 2.14838e-06)
(2.60151e-05 -0.11539 1.09802e-05)
(2.90336e-05 -0.115523 2.27286e-06)
(1.83225e-05 -0.115473 1.27385e-05)
(-0.000741325 -0.115998 -4.92922e-06)
(0.000908545 -0.116502 0.501876)
(-0.00074428 -0.115996 -6.57096e-06)
(0.000880311 -0.116641 0.501892)
(0.00104895 -0.115174 -1.74974e-05)
(-0.000875879 -0.115718 0.50206)
(0.00103349 -0.115178 -1.91333e-05)
(-0.000871476 -0.115844 0.501651)
(0.000966809 -0.116223 -0.50184)
(-0.000730818 -0.115921 2.07727e-06)
(0.000937399 -0.116362 -0.501857)
(-0.000736671 -0.115973 3.43546e-06)
(-0.000895329 -0.115447 -0.502026)
(0.00108877 -0.115093 1.46438e-05)
(-0.000885213 -0.115585 -0.502042)
(0.00106852 -0.115145 1.60511e-05)
(0.000121339 -0.115994 6.71259e-06)
(0.000138898 -0.116043 -1.88642e-06)
(0.000105397 -0.116093 5.52764e-06)
(0.000121413 -0.116145 -2.04678e-06)
(4.10533e-05 -0.115201 -8.27804e-06)
(4.70428e-05 -0.115252 -1.93977e-06)
(3.3446e-05 -0.1153 -9.56127e-06)
(4.09977e-05 -0.115354 -2.15196e-06)
(0.000138295 -0.116052 -4.82698e-07)
(0.000138295 -0.116052 4.83735e-07)
(0.000120783 -0.116152 -4.56703e-07)
(0.000120783 -0.116152 4.56685e-07)
(4.71214e-05 -0.115261 -4.76144e-07)
(4.71215e-05 -0.115261 4.77109e-07)
(4.11237e-05 -0.115361 -4.49409e-07)
(4.11238e-05 -0.115361 4.50017e-07)
(0.000138897 -0.116043 1.88866e-06)
(0.000121344 -0.115995 -6.71059e-06)
(0.000121412 -0.116145 2.04724e-06)
(0.000105402 -0.116093 -5.52764e-06)
(4.70431e-05 -0.115252 1.94379e-06)
(4.10532e-05 -0.115201 8.28253e-06)
(4.09983e-05 -0.115354 2.1507e-06)
(3.34474e-05 -0.1153 9.5576e-06)
(-0.000730843 -0.115921 -2.07124e-06)
(0.000966749 -0.116223 0.50184)
(-0.000736764 -0.115973 -3.43541e-06)
(0.000937623 -0.116362 0.501857)
(0.00108882 -0.115093 -1.4644e-05)
(-0.000895324 -0.115446 0.501652)
(0.0010686 -0.115145 -1.60555e-05)
(-0.000885145 -0.115586 0.502042)
(0.00102711 -0.115926 -0.501805)
(-0.00071449 -0.115751 -2.67922e-07)
(0.000996635 -0.116077 -0.501821)
(-0.000723462 -0.115847 8.43288e-07)
(-0.000914596 -0.11515 -0.501993)
(0.00113024 -0.114925 1.22288e-05)
(-0.000905279 -0.115302 -0.502008)
(0.00110941 -0.115019 1.33869e-05)
(0.000156619 -0.115765 8.41535e-06)
(0.000176688 -0.115802 -1.46914e-06)
(0.00013836 -0.115886 7.66063e-06)
(0.000157287 -0.115929 -1.69156e-06)
(5.70834e-05 -0.114972 -6.4131e-06)
(5.99842e-05 -0.115012 -1.53327e-06)
(4.89188e-05 -0.115092 -7.26363e-06)
(5.33605e-05 -0.115138 -1.76332e-06)
(0.000176145 -0.115815 -4.93865e-07)
(0.000176144 -0.115815 4.96303e-07)
(0.000156716 -0.11594 -4.95496e-07)
(0.000156715 -0.11594 4.97158e-07)
(6.00695e-05 -0.115024 -4.91302e-07)
(6.00692e-05 -0.115024 4.93744e-07)
(5.34173e-05 -0.115149 -4.84393e-07)
(5.34172e-05 -0.115149 4.86082e-07)
(0.000176688 -0.115802 1.47243e-06)
(0.000156626 -0.115765 -8.41342e-06)
(0.000157286 -0.115929 1.69424e-06)
(0.000138366 -0.115886 -7.65945e-06)
(5.99849e-05 -0.115012 1.53794e-06)
(5.70852e-05 -0.114972 6.41634e-06)
(5.33611e-05 -0.115138 1.76677e-06)
(4.89199e-05 -0.115092 7.26631e-06)
(-0.000714517 -0.115751 2.70284e-07)
(0.00102728 -0.115926 0.501806)
(-0.000723516 -0.115847 -8.41152e-07)
(0.000996793 -0.116078 0.501822)
(0.00113022 -0.114925 -1.2229e-05)
(-0.000914747 -0.11515 0.501581)
(0.00110941 -0.11502 -1.33867e-05)
(-0.000905321 -0.115303 0.501627)
(0.00108999 -0.115595 -0.501771)
(-0.000690943 -0.115502 -2.14794e-06)
(0.00105815 -0.115766 -0.501786)
(-0.000703615 -0.115636 -1.26193e-06)
(-0.000930892 -0.114818 -0.50196)
(0.0011717 -0.114676 1.02547e-05)
(-0.000923251 -0.114989 -0.501975)
(0.001151 -0.11481 1.11877e-05)
(0.000197081 -0.115485 9.42723e-06)
(0.000219076 -0.115511 -9.8239e-07)
(0.000176171 -0.115632 8.99356e-06)
(0.000197279 -0.115663 -1.22719e-06)
(7.43319e-05 -0.114692 -5.23249e-06)
(7.45478e-05 -0.114721 -1.03768e-06)
(6.55426e-05 -0.114839 -5.75001e-06)
(6.7061e-05 -0.114873 -1.2864e-06)
(0.000218689 -0.115523 -4.24862e-07)
(0.000218689 -0.115523 4.26992e-07)
(0.000196736 -0.115676 -4.66086e-07)
(0.000196735 -0.115676 4.68915e-07)
(7.45385e-05 -0.114733 -4.18543e-07)
(7.45385e-05 -0.114733 4.2068e-07)
(6.70706e-05 -0.114886 -4.60577e-07)
(6.70704e-05 -0.114886 4.64184e-07)
(0.000219077 -0.115511 9.84003e-07)
(0.000197091 -0.115485 -9.42741e-06)
(0.00019728 -0.115663 1.23008e-06)
(0.00017618 -0.115632 -8.99196e-06)
(7.45486e-05 -0.114721 1.03885e-06)
(7.43373e-05 -0.114692 5.22754e-06)
(6.70616e-05 -0.114873 1.29079e-06)
(6.55464e-05 -0.114839 5.75233e-06)
(-0.000690991 -0.115502 2.14753e-06)
(0.00109001 -0.115595 0.501771)
(-0.000703654 -0.115636 1.26379e-06)
(0.00105817 -0.115766 0.501786)
(0.00117171 -0.114676 -1.02659e-05)
(-0.000930973 -0.114817 0.50196)
(0.00115101 -0.11481 -1.11889e-05)
(-0.000923219 -0.11499 0.501554)
(0.001157 -0.115218 -0.501737)
(-0.000660131 -0.115176 -3.62039e-06)
(0.00112255 -0.115414 -0.501752)
(-0.000676429 -0.115348 -2.93173e-06)
(-0.000943815 -0.114441 -0.501927)
(0.00121389 -0.114352 8.68848e-06)
(-0.000937811 -0.114636 -0.501942)
(0.00119263 -0.114524 9.42448e-06)
(0.00024349 -0.115147 9.95218e-06)
(0.000267074 -0.115162 -5.19166e-07)
(0.000219492 -0.115324 9.73881e-06)
(0.000242307 -0.115344 -7.44002e-07)
(9.31454e-05 -0.114354 -4.54522e-06)
(9.09909e-05 -0.114372 -5.68637e-07)
(8.35188e-05 -0.114531 -4.83867e-06)
(8.25118e-05 -0.114554 -7.96317e-07)
(0.000266922 -0.115172 -3.18803e-07)
(0.000266922 -0.115172 3.19495e-07)
(0.000242058 -0.115355 -3.74116e-07)
(0.000242058 -0.115355 3.75533e-07)
(9.09667e-05 -0.114382 -3.1317e-07)
(9.09669e-05 -0.114382 3.13675e-07)
(8.24963e-05 -0.114565 -3.68115e-07)
(8.24963e-05 -0.114565 3.69302e-07)
(0.000267076 -0.115162 5.1956e-07)
(0.000243498 -0.115147 -9.95274e-06)
(0.000242309 -0.115344 7.45121e-07)
(0.000219502 -0.115324 -9.73929e-06)
(9.0992e-05 -0.114372 5.68642e-07)
(9.31515e-05 -0.114354 4.54197e-06)
(8.25128e-05 -0.114554 7.96742e-07)
(8.3525e-05 -0.114531 4.83471e-06)
(-0.000660158 -0.115176 3.62062e-06)
(0.00115708 -0.115218 0.501737)
(-0.000676447 -0.115348 2.93276e-06)
(0.00112266 -0.115414 0.501752)
(0.00121389 -0.114352 -8.6895e-06)
(-0.000943771 -0.114441 0.501927)
(0.00119263 -0.114524 -9.42735e-06)
(-0.000937822 -0.114637 0.501942)
(0.00122918 -0.114785 -0.501703)
(-0.000621608 -0.114775 -4.74742e-06)
(0.00119226 -0.11501 -0.501718)
(-0.000641858 -0.114985 -4.22249e-06)
(-0.000953236 -0.114008 -0.501895)
(0.00125741 -0.113952 7.46802e-06)
(-0.000948961 -0.114232 -0.50191)
(0.00123547 -0.114161 8.03938e-06)
(0.000296721 -0.114742 1.01565e-05)
(0.000321679 -0.114749 -1.2712e-07)
(0.000269204 -0.114953 1.00858e-05)
(0.000293503 -0.114964 -3.12673e-07)
(0.000113905 -0.113949 -4.18908e-06)
(0.000109667 -0.113959 -1.71418e-07)
(0.000103261 -0.11416 -4.33461e-06)
(0.000100032 -0.114174 -3.59407e-07)
(0.000321655 -0.114757 -2.06741e-07)
(0.000321655 -0.114757 2.06322e-07)
(0.000293422 -0.114973 -2.6224e-07)
(0.000293422 -0.114973 2.62167e-07)
(0.000109619 -0.113966 -2.01683e-07)
(0.00010962 -0.113966 2.0119e-07)
(9.99971e-05 -0.114183 -2.56873e-07)
(9.99972e-05 -0.114183 2.56746e-07)
(0.00032168 -0.114749 1.26549e-07)
(0.000296724 -0.114742 -1.01569e-05)
(0.000293504 -0.114964 3.12502e-07)
(0.00026921 -0.114953 -1.00864e-05)
(0.000109669 -0.113959 1.70586e-07)
(0.000113909 -0.113949 4.18627e-06)
(0.000100034 -0.114174 3.58919e-07)
(0.000103266 -0.114161 4.33157e-06)
(-0.000621576 -0.114775 4.74719e-06)
(0.0012291 -0.114785 0.501703)
(-0.000641823 -0.114985 4.22312e-06)
(0.00119205 -0.11501 0.501718)
(0.00125733 -0.113952 -7.46872e-06)
(-0.00095334 -0.114008 0.501895)
(0.00123539 -0.114161 -8.04021e-06)
(-0.000949011 -0.114232 0.50191)
(0.00130805 -0.114286 -0.50167)
(-0.000574693 -0.114296 -5.59471e-06)
(0.00126752 -0.114545 -0.501684)
(-0.000599211 -0.114546 -5.20257e-06)
(-0.000959492 -0.113509 -0.501864)
(0.00130278 -0.113473 6.52607e-06)
(-0.000956772 -0.113767 -0.501878)
(0.00127981 -0.113722 6.96645e-06)
(0.000357696 -0.114262 1.01617e-05)
(0.000383819 -0.114264 1.74009e-07)
(0.000326189 -0.114512 1.01776e-05)
(0.000351752 -0.114516 3.55304e-08)
(0.000136989 -0.11347 -4.03968e-06)
(0.000130897 -0.113474 1.3353e-07)
(0.000125134 -0.11372 -4.09518e-06)
(0.000119946 -0.113726 -6.75358e-09)
(0.000383855 -0.114269 -1.08407e-07)
(0.000383854 -0.114269 1.07637e-07)
(0.00035177 -0.114522 -1.54522e-07)
(0.00035177 -0.114522 1.54037e-07)
(0.000130819 -0.113479 -1.0423e-07)
(0.000130819 -0.113479 1.03428e-07)
(0.000119883 -0.113732 -1.49904e-07)
(0.000119883 -0.113732 1.49335e-07)
(0.000383819 -0.114264 -1.7529e-07)
(0.000357696 -0.114262 -1.01623e-05)
(0.000351752 -0.114516 -3.63598e-08)
(0.00032619 -0.114512 -1.01779e-05)
(0.000130898 -0.113474 -1.34797e-07)
(0.000136992 -0.11347 4.03736e-06)
(0.000119947 -0.113726 5.78091e-09)
(0.000125137 -0.11372 4.09262e-06)
(-0.000574685 -0.114296 5.59458e-06)
(0.00130815 -0.114286 0.50167)
(-0.000599197 -0.114546 5.20189e-06)
(0.00126761 -0.114545 0.501684)
(0.00130277 -0.113473 -6.52669e-06)
(-0.000959503 -0.11351 0.501864)
(0.00127977 -0.113722 -6.96723e-06)
(-0.000956836 -0.113767 0.501878)
(0.00139431 -0.11371 -0.501637)
(-0.000518582 -0.113733 -6.21984e-06)
(0.0013503 -0.114008 -0.501651)
(-0.000547825 -0.114025 -5.93128e-06)
(-0.000962252 -0.112934 -0.501833)
(0.00135052 -0.11291 5.80431e-06)
(-0.000961312 -0.11323 -0.501847)
(0.00132635 -0.113202 6.14136e-06)
(0.000427309 -0.113701 1.00483e-05)
(0.000454429 -0.113699 3.86431e-07)
(0.00039137 -0.113992 1.0116e-05)
(0.000418018 -0.113992 2.90663e-07)
(0.000162751 -0.112909 -4.01726e-06)
(0.000154994 -0.11291 3.49528e-07)
(0.000149514 -0.113201 -4.01643e-06)
(0.000142569 -0.113203 2.51929e-07)
(0.00045444 -0.113702 -2.53773e-08)
(0.00045444 -0.113702 2.43975e-08)
(0.000418036 -0.113996 -6.50161e-08)
(0.000418036 -0.113996 6.40512e-08)
(0.00015487 -0.112913 -2.10126e-08)
(0.00015487 -0.112913 2.00508e-08)
(0.000142467 -0.113206 -6.09372e-08)
(0.000142467 -0.113207 6.00098e-08)
(0.00045443 -0.113699 -3.87631e-07)
(0.00042731 -0.113701 -1.00488e-05)
(0.000418018 -0.113992 -2.91998e-07)
(0.000391371 -0.113992 -1.01166e-05)
(0.000154994 -0.11291 -3.5068e-07)
(0.000162754 -0.112909 4.0156e-06)
(0.000142569 -0.113203 -2.53222e-07)
(0.000149517 -0.113201 4.01444e-06)
(-0.000518584 -0.113733 6.2201e-06)
(0.00139427 -0.11371 0.501637)
(-0.000547825 -0.114025 5.93147e-06)
(0.00135033 -0.114008 0.501651)
(0.00135052 -0.11291 -5.80483e-06)
(-0.000962206 -0.112934 0.501833)
(0.00132635 -0.113202 -6.14188e-06)
(-0.000961285 -0.11323 0.501847)
(0.00148945 -0.113047 -0.501605)
(-0.000452429 -0.113079 -6.67457e-06)
(0.0014408 -0.11339 -0.501619)
(-0.000486801 -0.113418 -6.46597e-06)
(-0.000960842 -0.112272 -0.501803)
(0.00140125 -0.112257 5.25393e-06)
(-0.000962021 -0.112614 -0.501817)
(0.00137552 -0.112596 5.51032e-06)
(0.000506482 -0.113049 9.8673e-06)
(0.000534423 -0.113045 5.21889e-07)
(0.000465655 -0.113387 9.96388e-06)
(0.000493204 -0.113384 4.62893e-07)
(0.000191556 -0.112258 -4.06942e-06)
(0.000182283 -0.112256 4.87898e-07)
(0.000176756 -0.112596 -4.03665e-06)
(0.000168222 -0.112595 4.27565e-07)
(0.000534441 -0.113047 4.2086e-08)
(0.000534441 -0.113047 -4.26341e-08)
(0.000493217 -0.113386 1.04566e-08)
(0.000493216 -0.113386 -1.1279e-08)
(0.000182125 -0.112258 4.66022e-08)
(0.000182125 -0.112258 -4.71947e-08)
(0.000168081 -0.112597 1.49928e-08)
(0.00016808 -0.112597 -1.5802e-08)
(0.000534424 -0.113045 -5.22502e-07)
(0.000506483 -0.113049 -9.8674e-06)
(0.000493205 -0.113384 -4.63806e-07)
(0.000465656 -0.113387 -9.9642e-06)
(0.000182283 -0.112256 -4.88533e-07)
(0.000191559 -0.112258 4.06836e-06)
(0.000168223 -0.112595 -4.2847e-07)
(0.000176759 -0.112596 4.03531e-06)
(-0.000452432 -0.113079 6.67493e-06)
(0.00148943 -0.113047 0.501605)
(-0.000486805 -0.113418 6.46627e-06)
(0.00144076 -0.11339 0.501619)
(0.00140125 -0.112257 -5.25425e-06)
(-0.000960828 -0.112272 0.501803)
(0.00137552 -0.112596 -5.51078e-06)
(-0.000961994 -0.112614 0.501817)
(0.00159389 -0.112289 -0.501574)
(-0.000375273 -0.112327 -6.99685e-06)
(0.00154039 -0.112681 -0.501587)
(-0.000415253 -0.112716 -6.85017e-06)
(-0.000955703 -0.111515 -0.501774)
(0.00145517 -0.111505 4.83639e-06)
(-0.000958806 -0.111906 -0.501787)
(0.0014278 -0.111894 5.03072e-06)
(0.000596066 -0.112298 9.64902e-06)
(0.000624704 -0.112293 5.94452e-07)
(0.000549926 -0.112687 9.76149e-06)
(0.000578225 -0.112682 5.65042e-07)
(0.000223719 -0.111508 -4.1629e-06)
(0.000213071 -0.111505 5.62216e-07)
(0.000207199 -0.111896 -4.11239e-06)
(0.000197222 -0.111894 5.32035e-07)
(0.000624726 -0.112293 9.27105e-08)
(0.000624726 -0.112293 -9.27594e-08)
(0.000578252 -0.112683 6.94286e-08)
(0.000578252 -0.112683 -6.97603e-08)
(0.000212879 -0.111505 9.64007e-08)
(0.000212879 -0.111505 -9.65797e-08)
(0.000197049 -0.111894 7.34679e-08)
(0.000197049 -0.111894 -7.38589e-08)
(0.000624705 -0.112293 -5.94463e-07)
(0.000596067 -0.112298 -9.64903e-06)
(0.000578227 -0.112682 -5.65406e-07)
(0.000549927 -0.112687 -9.76146e-06)
(0.000213072 -0.111505 -5.62387e-07)
(0.000223722 -0.111508 4.16207e-06)
(0.000197222 -0.111894 -5.32471e-07)
(0.000207202 -0.111896 4.11151e-06)
(-0.000375274 -0.112327 6.99721e-06)
(0.00159388 -0.112289 0.501574)
(-0.000415255 -0.112716 6.85055e-06)
(0.00154038 -0.112681 0.501587)
(0.00145516 -0.111505 -4.83655e-06)
(-0.0009557 -0.111515 0.501774)
(0.00142779 -0.111894 -5.03096e-06)
(-0.000958799 -0.111906 0.501787)
(0.00170869 -0.111424 -0.501543)
(-0.000286204 -0.111466 -7.21715e-06)
(0.00164992 -0.111871 -0.501556)
(-0.000332255 -0.111911 -7.1181e-06)
(-0.000946371 -0.110651 -0.501746)
(0.00151266 -0.110645 4.52175e-06)
(-0.0009516 -0.111097 -0.501758)
(0.00148346 -0.111089 4.66795e-06)
(0.000696945 -0.111439 9.41071e-06)
(0.00072622 -0.111434 6.18953e-07)
(0.000645049 -0.111883 9.53123e-06)
(0.000674009 -0.111878 6.12111e-07)
(0.000259569 -0.11065 -4.27903e-06)
(0.000247675 -0.110646 5.87769e-07)
(0.000241167 -0.111093 -4.21936e-06)
(0.00022988 -0.11109 5.80427e-07)
(0.000726178 -0.111433 1.28336e-07)
(0.000726178 -0.111433 -1.28357e-07)
(0.00067401 -0.111877 1.12951e-07)
(0.00067401 -0.111877 -1.12995e-07)
(0.000247438 -0.110646 1.31311e-07)
(0.000247438 -0.110646 -1.31492e-07)
(0.000229667 -0.111089 1.16056e-07)
(0.000229667 -0.11109 -1.16222e-07)
(0.000726222 -0.111434 -6.18989e-07)
(0.000696946 -0.111439 -9.41062e-06)
(0.00067401 -0.111878 -6.12122e-07)
(0.00064505 -0.111883 -9.53116e-06)
(0.000247676 -0.110646 -5.87968e-07)
(0.000259572 -0.11065 4.27831e-06)
(0.000229881 -0.11109 -5.80591e-07)
(0.000241169 -0.111093 4.21862e-06)
(-0.000286205 -0.111466 7.21755e-06)
(0.00170869 -0.111424 0.501543)
(-0.000332256 -0.111911 7.11849e-06)
(0.00164992 -0.111871 0.501556)
(0.00151266 -0.110645 -4.5218e-06)
(-0.000946372 -0.110651 0.501746)
(0.00148346 -0.111089 -4.66804e-06)
(-0.000951599 -0.111097 0.501758)
(0.00183471 -0.110443 -0.501512)
(-0.000184354 -0.110487 -7.35857e-06)
(0.00177024 -0.110949 -0.501525)
(-0.000236894 -0.110992 -7.29652e-06)
(-0.000932509 -0.109671 -0.501718)
(0.00157403 -0.109667 4.28781e-06)
(-0.000940037 -0.110177 -0.50173)
(0.00154287 -0.110172 4.39591e-06)
(0.000809891 -0.110461 9.16573e-06)
(0.00083976 -0.110456 6.04266e-07)
(0.000751883 -0.110965 9.2886e-06)
(0.000781458 -0.11096 6.15742e-07)
(0.000299375 -0.109674 -4.4028e-06)
(0.000286366 -0.10967 5.73521e-07)
(0.00027897 -0.110177 -4.34068e-06)
(0.0002665 -0.110173 5.85012e-07)
(0.000839662 -0.110454 1.44055e-07)
(0.000839662 -0.110454 -1.44253e-07)
(0.000781381 -0.110959 1.38391e-07)
(0.000781381 -0.110959 -1.38521e-07)
(0.00028609 -0.109668 1.48121e-07)
(0.000286089 -0.109668 -1.48439e-07)
(0.000266241 -0.110172 1.41827e-07)
(0.00026624 -0.110172 -1.42091e-07)
(0.000839762 -0.110456 -6.04592e-07)
(0.000809893 -0.110461 -9.16579e-06)
(0.00078146 -0.11096 -6.15931e-07)
(0.000751885 -0.110965 -9.28857e-06)
(0.000286366 -0.10967 -5.73955e-07)
(0.000299377 -0.109674 4.4018e-06)
(0.0002665 -0.110173 -5.85372e-07)
(0.000278972 -0.110177 4.3399e-06)
(-0.000184355 -0.110487 7.35889e-06)
(0.00183471 -0.110443 0.501512)
(-0.000236895 -0.110992 7.2969e-06)
(0.00177024 -0.110949 0.501525)
(0.00157402 -0.109667 -4.28805e-06)
(-0.000932511 -0.109672 0.501718)
(0.00154286 -0.110172 -4.39598e-06)
(-0.000940038 -0.110177 0.50173)
(0.00197268 -0.109334 -0.501483)
(-6.89799e-05 -0.10938 -7.43922e-06)
(0.00190214 -0.109905 -0.501495)
(-0.000128363 -0.10995 -7.40553e-06)
(-0.000913866 -0.108565 -0.501691)
(0.00163945 -0.108562 4.11602e-06)
(-0.000923817 -0.109135 -0.501703)
(0.00160624 -0.109131 4.19532e-06)
(0.00093562 -0.109355 8.91986e-06)
(0.000966034 -0.10935 5.61882e-07)
(0.000871122 -0.109925 9.04262e-06)
(0.000901273 -0.10992 5.85811e-07)
(0.000343387 -0.108569 -4.52816e-06)
(0.000329384 -0.108566 5.30972e-07)
(0.00032084 -0.109138 -4.46557e-06)
(0.000307323 -0.109134 5.55003e-07)
(0.000965935 -0.109348 1.44299e-07)
(0.000965934 -0.109348 -1.44848e-07)
(0.000901167 -0.109918 1.45733e-07)
(0.000901167 -0.109918 -1.46127e-07)
(0.000329091 -0.108564 1.50061e-07)
(0.000329091 -0.108564 -1.50718e-07)
(0.000307036 -0.109133 1.50619e-07)
(0.000307036 -0.109133 -1.51101e-07)
(0.000966036 -0.10935 -5.62622e-07)
(0.000935622 -0.109355 -8.92016e-06)
(0.000901275 -0.10992 -5.86359e-07)
(0.000871124 -0.109925 -9.0428e-06)
(0.000329385 -0.108566 -5.31814e-07)
(0.00034339 -0.108569 4.52692e-06)
(0.000307324 -0.109134 -5.55658e-07)
(0.000320842 -0.109138 4.46445e-06)
(-6.8981e-05 -0.10938 7.43944e-06)
(0.00197268 -0.109334 0.501483)
(-0.000128364 -0.10995 7.4058e-06)
(0.00190214 -0.109905 0.501495)
(0.00163944 -0.108562 -4.11636e-06)
(-0.000913868 -0.108565 0.501691)
(0.00160624 -0.109131 -4.19562e-06)
(-0.000923819 -0.109135 0.501703)
(0.00212323 -0.108087 -0.501454)
(6.04952e-05 -0.108133 -7.47402e-06)
(0.00204633 -0.108729 -0.501466)
(-6.00188e-06 -0.108775 -7.46153e-06)
(-0.000890199 -0.107321 -0.501664)
(0.001709 -0.107318 3.99102e-06)
(-0.00090269 -0.107961 -0.501676)
(0.00167372 -0.107958 4.04861e-06)
(0.00107482 -0.10811 8.67725e-06)
(0.00110569 -0.108105 5.01816e-07)
(0.00100351 -0.10875 8.79786e-06)
(0.00103417 -0.108745 5.33515e-07)
(0.000391872 -0.107326 -4.65149e-06)
(0.000376949 -0.107323 4.7051e-07)
(0.000367061 -0.107966 -4.5904e-06)
(0.000352591 -0.107962 5.02423e-07)
(0.00110563 -0.108103 1.34261e-07)
(0.00110563 -0.108103 -1.35261e-07)
(0.00103409 -0.108744 1.40286e-07)
(0.00103408 -0.108744 -1.41083e-07)
(0.000376657 -0.107321 1.41874e-07)
(0.000376657 -0.107321 -1.42973e-07)
(0.000352297 -0.107961 1.46971e-07)
(0.000352297 -0.107961 -1.4785e-07)
(0.00110569 -0.108105 -5.03026e-07)
(0.00107482 -0.10811 -8.67782e-06)
(0.00103417 -0.108745 -5.34504e-07)
(0.00100351 -0.10875 -8.79829e-06)
(0.000376949 -0.107323 -4.71816e-07)
(0.000391874 -0.107326 4.65001e-06)
(0.000352592 -0.107962 -5.03514e-07)
(0.000367064 -0.107966 4.58905e-06)
(6.04939e-05 -0.108134 7.4741e-06)
(0.00212324 -0.108087 0.501454)
(-6.00315e-06 -0.108775 7.46169e-06)
(0.00204633 -0.108729 0.501466)
(0.00170899 -0.107318 -3.99148e-06)
(-0.000890201 -0.107321 0.501664)
(0.00167371 -0.107958 -4.04901e-06)
(-0.000902693 -0.107961 0.501676)
(0.00228687 -0.106692 -0.501425)
(0.000204522 -0.106738 -7.47596e-06)
(0.00220338 -0.107409 -0.501437)
(0.000130705 -0.107455 -7.47837e-06)
(-0.000861304 -0.105929 -0.501639)
(0.00178275 -0.105926 3.90023e-06)
(-0.000876432 -0.106644 -0.50165)
(0.00174536 -0.106641 3.94218e-06)
(0.00122797 -0.106715 8.44219e-06)
(0.0012592 -0.106711 4.31206e-07)
(0.00114964 -0.107432 8.5585e-06)
(0.0011807 -0.107427 4.67463e-07)
(0.000445003 -0.105935 -4.76887e-06)
(0.000429221 -0.105932 3.99196e-07)
(0.000417852 -0.10665 -4.71126e-06)
(0.000402493 -0.106647 4.35882e-07)
(0.00125922 -0.106709 1.17234e-07)
(0.00125922 -0.106709 -1.18784e-07)
(0.00118068 -0.107426 1.26461e-07)
(0.00118068 -0.107426 -1.27752e-07)
(0.000428945 -0.10593 1.26308e-07)
(0.000428945 -0.10593 -1.27955e-07)
(0.000402209 -0.106645 1.34976e-07)
(0.000402208 -0.106645 -1.36342e-07)
(0.0012592 -0.106711 -4.32934e-07)
(0.00122797 -0.106715 -8.44306e-06)
(0.0011807 -0.107427 -4.6894e-07)
(0.00114964 -0.107432 -8.55921e-06)
(0.000429221 -0.105932 -4.0101e-07)
(0.000445005 -0.105935 4.76711e-06)
(0.000402494 -0.106647 -4.37455e-07)
(0.000417855 -0.10665 4.70965e-06)
(0.00020452 -0.106738 7.47589e-06)
(0.00228687 -0.106692 0.501425)
(0.000130703 -0.107455 7.47839e-06)
(0.00220338 -0.107409 0.501437)
(0.00178274 -0.105926 -3.90083e-06)
(-0.000861307 -0.105929 0.501639)
(0.00174536 -0.106642 -3.9427e-06)
(-0.000876434 -0.106644 0.50165)
(0.00246385 -0.105138 -0.501397)
(0.00036333 -0.105185 -7.45662e-06)
(0.00237367 -0.105936 -0.501409)
(0.000282107 -0.105982 -7.46831e-06)
(-0.00082705 -0.104379 -0.501614)
(0.00186068 -0.104377 3.83274e-06)
(-0.000844869 -0.105174 -0.501625)
(0.00182121 -0.105172 3.8643e-06)
(0.0013953 -0.105162 8.21829e-06)
(0.00142682 -0.105158 3.55175e-07)
(0.00130987 -0.105959 8.32872e-06)
(0.00134125 -0.105955 3.93538e-07)
(0.000502864 -0.104386 -4.87676e-06)
(0.000486285 -0.104383 3.2106e-07)
(0.000473343 -0.105181 -4.82415e-06)
(0.000457155 -0.105178 3.60688e-07)
(0.00142693 -0.105157 9.57344e-08)
(0.00142693 -0.105157 -9.79043e-08)
(0.00134132 -0.105954 1.06814e-07)
(0.00134132 -0.105954 -1.08693e-07)
(0.000486029 -0.104381 1.03776e-07)
(0.000486029 -0.104381 -1.0604e-07)
(0.00045689 -0.105176 1.1574e-07)
(0.00045689 -0.105176 -1.17698e-07)
(0.00142683 -0.105158 -3.57468e-07)
(0.00139531 -0.105162 -8.21947e-06)
(0.00134125 -0.105955 -3.95555e-07)
(0.00130987 -0.105959 -8.32974e-06)
(0.000486285 -0.104383 -3.23431e-07)
(0.000502866 -0.104386 4.87473e-06)
(0.000457156 -0.105178 -3.62794e-07)
(0.000473345 -0.105181 4.82228e-06)
(0.000363327 -0.105185 7.45636e-06)
(0.00246385 -0.105138 0.501397)
(0.000282105 -0.105982 7.46816e-06)
(0.00237367 -0.105936 0.501409)
(0.00186067 -0.104377 -3.8335e-06)
(-0.000827053 -0.104379 0.501614)
(0.0018212 -0.105172 -3.86498e-06)
(-0.000844872 -0.105174 0.501625)
(0.00265428 -0.103417 -0.50137)
(0.000536984 -0.103462 -7.42629e-06)
(0.00255737 -0.104299 -0.501381)
(0.000448352 -0.104345 -7.44228e-06)
(-0.000787372 -0.102662 -0.50159)
(0.00194276 -0.102659 3.77861e-06)
(-0.000807907 -0.103542 -0.5016)
(0.00190123 -0.10354 3.80469e-06)
(0.00157689 -0.103441 8.008e-06)
(0.00160864 -0.103437 2.78859e-07)
(0.00148434 -0.104323 8.1113e-06)
(0.00151598 -0.104319 3.16747e-07)
(0.000565481 -0.102669 -4.97518e-06)
(0.000548169 -0.102666 2.42136e-07)
(0.000533585 -0.103549 -4.92725e-06)
(0.000516632 -0.103546 2.81273e-07)
(0.00160882 -0.103436 7.34264e-08)
(0.00160882 -0.103436 -7.61196e-08)
(0.00151613 -0.104318 8.44799e-08)
(0.00151612 -0.104318 -8.69438e-08)
(0.000547924 -0.102665 7.98576e-08)
(0.000547924 -0.102665 -8.26162e-08)
(0.000516384 -0.103545 9.16262e-08)
(0.000516383 -0.103545 -9.4152e-08)
(0.00160864 -0.103437 -2.81625e-07)
(0.00157689 -0.103441 -8.00947e-06)
(0.00151598 -0.104319 -3.19295e-07)
(0.00148434 -0.104323 -8.11264e-06)
(0.000548169 -0.102666 -2.44954e-07)
(0.000565482 -0.102669 4.97289e-06)
(0.000516633 -0.103546 -2.83894e-07)
(0.000533587 -0.103549 4.92509e-06)
(0.000536981 -0.103462 7.42586e-06)
(0.00265428 -0.103417 0.50137)
(0.000448349 -0.104345 7.44195e-06)
(0.00255737 -0.104299 0.501381)
(0.00194275 -0.10266 -3.77953e-06)
(-0.000787376 -0.102662 0.50159)
(0.00190122 -0.10354 -3.80553e-06)
(-0.000807911 -0.103542 0.5016)
(0.00285795 -0.101518 -0.501344)
(0.000725215 -0.101563 -7.39355e-06)
(0.00275446 -0.10249 -0.501354)
(0.000629344 -0.102536 -7.40981e-06)
(-0.0007423 -0.10077 -0.501567)
(0.00202886 -0.100767 3.72913e-06)
(-0.000765524 -0.101739 -0.501576)
(0.00198534 -0.101736 3.75386e-06)
(0.00177249 -0.101542 7.81333e-06)
(0.00180441 -0.101539 2.06139e-07)
(0.00167298 -0.102514 7.9086e-06)
(0.00170482 -0.102511 2.41891e-07)
(0.000632771 -0.100776 -5.0632e-06)
(0.000614788 -0.100773 1.67296e-07)
(0.000598554 -0.101745 -5.02064e-06)
(0.0005809 -0.101742 2.04022e-07)
(0.00180464 -0.101538 5.25697e-08)
(0.00180464 -0.101538 -5.5446e-08)
(0.00170503 -0.102509 6.27451e-08)
(0.00170503 -0.102509 -6.55816e-08)
(0.000614547 -0.100772 5.80075e-08)
(0.000614547 -0.100772 -6.09255e-08)
(0.000580659 -0.101741 6.86359e-08)
(0.000580658 -0.101741 -7.15069e-08)
(0.00180441 -0.101539 -2.09071e-07)