/*--------------------------------*- C++ -*----------------------------------*\
  =========                 |
  \\      /  F ield         | OpenFOAM: The Open Source CFD Toolbox
   \\    /   O peration     | Website:  https://openfoam.org
    \\  /    A nd           | Version:  9
     \\/     M anipulation  |
\*---------------------------------------------------------------------------*/
FoamFile
{
    format      ascii;
    class       volScalarField;
    location    "2.85";
    object      epsilon;
}
// * * * * * * * * * * * * * * * * * * * * * * * * * * * * * * * * * * * * * //

dimensions      [0 2 -3 0 0 0 0];

internalField   nonuniform List<scalar> 
36360
(
0.303073
0.238396
0.130213
0.113953
0.110359
0.0802005
0.018428
0.0170229
0.0740604
0.0166714
0.0198964
0.00578811
0.018823
0.00543301
0.0065751
0.00473558
0.00440533
0.00440798
0.00407442
0.00407449
0.00305324
0.00305379
0.00493424
0.00493419
0.0166827
0.0740807
0.00579075
0.0199075
0.00543672
0.018838
0.00473592
0.00657836
0.238428
0.303122
0.113985
0.130252
0.0802401
0.110391
0.0170323
0.0184331
0.523111
0.412161
0.429517
0.336477
0.3499
0.243675
0.238517
0.163298
0.178398
0.0745442
0.12932
0.043508
0.104572
0.0361531
0.0568208
0.0131103
0.0343233
0.0343329
0.0127236
0.0127319
0.01257
0.01258
0.00410962
0.00411269
0.0745619
0.178415
0.0435259
0.129339
0.0361888
0.104618
0.0131265
0.0568588
0.412185
0.523157
0.336505
0.429566
0.243721
0.349932
0.163344
0.238555
0.655904
0.524578
0.59618
0.473353
0.522562
0.380156
0.442799
0.315597
0.260234
0.136751
0.221709
0.106231
0.199768
0.106948
0.152955
0.0698281
0.0879899
0.0879959
0.0610095
0.0610171
0.0701546
0.0701706
0.0371522
0.0371695
0.136764
0.260244
0.106247
0.221724
0.106988
0.199812
0.0698678
0.153003
0.524592
0.655943
0.473373
0.596223
0.380187
0.522565
0.315639
0.442821
0.748956
0.606211
0.706079
0.568356
0.654359
0.490641
0.592427
0.438254
0.324957
0.190854
0.294536
0.165119
0.284624
0.178404
0.243836
0.143699
0.137206
0.137208
0.113662
0.113666
0.136342
0.136355
0.104085
0.104099
0.190856
0.324952
0.165126
0.294539
0.178435
0.284651
0.143735
0.243873
0.606205
0.748982
0.568361
0.706112
0.490635
0.654307
0.438268
0.592405
0.817176
0.667094
0.785711
0.63893
0.756948
0.578713
0.70897
0.537347
0.37504
0.233962
0.351733
0.213812
0.354702
0.238738
0.321604
0.210164
0.176945
0.176943
0.158331
0.158331
0.192492
0.192501
0.165891
0.165902
0.233951
0.375014
0.213808
0.351717
0.238756
0.354702
0.210189
0.321619
0.667065
0.817182
0.638912
0.785727
0.578655
0.756824
0.537316
0.708882
0.866464
0.711425
0.84394
0.69113
0.834008
0.645713
0.798407
0.614675
0.412196
0.266358
0.395131
0.251444
0.408903
0.285749
0.383722
0.263878
0.206992
0.206985
0.193143
0.193138
0.236293
0.236297
0.215906
0.215913
0.266334
0.412148
0.251427
0.395093
0.285751
0.408871
0.263889
0.383706
0.71137
0.866449
0.691087
0.843935
0.645599
0.833805
0.61459
0.798242
0.900501
0.742257
0.885179
0.728356
0.888928
0.69382
0.863926
0.671881
0.438379
0.289371
0.426549
0.278958
0.448209
0.319975
0.430255
0.304328
0.228419
0.228408
0.218715
0.218707
0.268223
0.268223
0.253619
0.253621
0.289335
0.438311
0.278928
0.426491
0.319962
0.448146
0.304323
0.430207
0.742178
0.900467
0.728288
0.885154
0.693653
0.888652
0.67174
0.863684
0.922623
0.762442
0.912874
0.753529
0.925715
0.726189
0.909256
0.711687
0.455728
0.304723
0.448051
0.297921
0.474841
0.343222
0.462898
0.33279
0.242759
0.242746
0.2364
0.236388
0.289934
0.28993
0.280186
0.280184
0.304678
0.455644
0.29788
0.447975
0.343196
0.474752
0.33277
0.462821
0.762344
0.922575
0.753439
0.912832
0.725978
0.925377
0.711496
0.908945
0.935791
0.774606
0.930173
0.769397
0.948506
0.746307
0.938531
0.737489
0.466357
0.314208
0.461791
0.310125
0.491509
0.357803
0.484197
0.351401
0.251654
0.251638
0.24782
0.247805
0.303567
0.30356
0.297576
0.29757
0.314155
0.466261
0.310075
0.4617
0.357767
0.491401
0.35137
0.484098
0.774494
0.935733
0.76929
0.930119
0.746062
0.948122
0.737259
0.938166
0.942621
0.781063
0.939889
0.778454
0.961163
0.757519
0.95581
0.752765
0.472177
0.319482
0.469804
0.317319
0.500904
0.366054
0.496912
0.362539
0.256635
0.256617
0.254586
0.254569
0.311299
0.31129
0.307999
0.307991
0.319425
0.472073
0.317263
0.469703
0.366012
0.500782
0.3625
0.496796
0.780941
0.942557
0.778337
0.939827
0.757251
0.960748
0.752507
0.955406
0.945133
0.783641
0.944346
0.782776
0.966869
0.762614
0.964638
0.760607
0.474731
0.321902
0.473826
0.321021
0.505311
0.369977
0.503558
0.368403
0.258966
0.258948
0.258107
0.258089
0.315002
0.314992
0.313508
0.313498
0.321841
0.474622
0.320962
0.473719
0.369932
0.505182
0.368359
0.503432
0.783515
0.945066
0.782652
0.944279
0.762334
0.966436
0.760332
0.96421
0.944865
0.78372
0.945289
0.783951
0.967934
0.763637
0.967789
0.763464
0.475166
0.322472
0.475202
0.322417
0.506434
0.371078
0.506155
0.370767
0.259583
0.259564
0.259489
0.259471
0.316088
0.316077
0.315763
0.315753
0.32241
0.475056
0.322356
0.475092
0.371031
0.506302
0.370721
0.506025
0.783593
0.944799
0.783824
0.945222
0.763351
0.967493
0.76318
0.967349
0.942823
0.782254
0.944075
0.783198
0.966348
0.762344
0.967445
0.763244
0.474353
0.321974
0.474949
0.322384
0.505678
0.370553
0.506245
0.370962
0.259214
0.259195
0.259543
0.259524
0.315658
0.315648
0.315999
0.315989
0.321912
0.474242
0.322322
0.474838
0.370506
0.505547
0.370915
0.506114
0.782127
0.942757
0.78307
0.944008
0.762058
0.965906
0.762958
0.967001
0.939606
0.779761
0.94137
0.781147
0.962835
0.759373
0.964686
0.760932
0.472676
0.320729
0.473643
0.321467
0.50358
0.368885
0.504693
0.369768
0.258158
0.25814
0.258794
0.258775
0.314175
0.314165
0.314957
0.314947
0.320668
0.472567
0.321405
0.473533
0.368839
0.503449
0.369722
0.504562
0.779635
0.939543
0.78102
0.941304
0.759089
0.962396
0.760646
0.964243
0.935608
0.77661
0.937732
0.778296
0.958179
0.755421
0.960551
0.757426
0.470483
0.319055
0.471685
0.319987
0.500722
0.366583
0.50218
0.367754
0.256713
0.256695
0.257524
0.257505
0.312111
0.312102
0.313157
0.313147
0.318995
0.470376
0.319926
0.471576
0.366539
0.500595
0.367709
0.502051
0.776487
0.935547
0.778171
0.937669
0.755142
0.957745
0.757143
0.960111
0.93103
0.772989
0.933428
0.774896
0.952708
0.750778
0.955459
0.753104
0.467929
0.317084
0.469299
0.318153
0.497333
0.363839
0.499037
0.365215
0.255001
0.254983
0.255935
0.255917
0.309643
0.309634
0.310876
0.310867
0.317025
0.467823
0.318094
0.469193
0.363796
0.497209
0.365171
0.498911
0.772869
0.930972
0.774774
0.933368
0.750504
0.952281
0.752827
0.955026
0.925961
0.768982
0.928599
0.771076
0.946585
0.745586
0.949651
0.748176
0.465085
0.31488
0.466595
0.316061
0.493528
0.360751
0.495432
0.362291
0.25308
0.253063
0.254114
0.254097
0.306863
0.306854
0.308245
0.308236
0.314822
0.464983
0.316003
0.466491
0.36071
0.493408
0.362249
0.495309
0.768865
0.925906
0.770957
0.928542
0.745318
0.946167
0.747905
0.949226
0.920434
0.764622
0.9233
0.766891
0.939878
0.739903
0.943232
0.742736
0.461984
0.312471
0.463621
0.313753
0.489358
0.357362
0.491441
0.35905
0.250979
0.250962
0.252102
0.252085
0.303809
0.303802
0.305326
0.305318
0.312415
0.461884
0.313697
0.46352
0.357323
0.489241
0.35901
0.491323
0.764508
0.920383
0.766776
0.923246
0.739642
0.939469
0.742471
0.942816
0.914453
0.759916
0.917544
0.762357
0.932609
0.73375
0.936243
0.736817
0.458636
0.309868
0.460396
0.311247
0.48484
0.353689
0.487097
0.355519
0.248706
0.24869
0.249915
0.249898
0.300499
0.300491
0.302143
0.302136
0.309814
0.458539
0.311192
0.460297
0.353652
0.484728
0.355481
0.486982
0.759807
0.914406
0.762245
0.917495
0.733496
0.93221
0.736559
0.935837
0.908023
0.75487
0.911341
0.757482
0.924786
0.727132
0.928699
0.730434
0.455042
0.307072
0.456925
0.308548
0.47998
0.349735
0.482409
0.351707
0.246264
0.246248
0.247557
0.247541
0.296933
0.296926
0.298706
0.298699
0.30702
0.454948
0.308494
0.45683
0.3497
0.479872
0.351671
0.482299
0.754764
0.907979
0.757374
0.911295
0.726886
0.924397
0.730183
0.928303
0.901133
0.749477
0.904682
0.752263
0.916405
0.720048
0.920599
0.723584
0.4512
0.304082
0.453208
0.305655
0.474775
0.345499
0.477378
0.347613
0.243651
0.243636
0.24503
0.245015
0.293111
0.293106
0.295014
0.295007
0.304032
0.451109
0.305604
0.453116
0.345467
0.474672
0.347579
0.477272
0.749376
0.901094
0.752159
0.904639
0.71981
0.916027
0.723342
0.920214
0.893781
0.743735
0.897562
0.746696
0.907462
0.712491
0.911939
0.716266
0.447109
0.300897
0.449242
0.302568
0.469224
0.34098
0.472001
0.343236
0.240867
0.240853
0.242332
0.242317
0.289034
0.289029
0.291065
0.29106
0.300848
0.447022
0.302518
0.449153
0.34095
0.469125
0.343205
0.4719
0.743637
0.893745
0.746596
0.897523
0.712261
0.907096
0.716031
0.911565
0.885968
0.737644
0.889979
0.740779
0.897961
0.704463
0.902718
0.708474
0.442769
0.297517
0.445027
0.299285
0.463328
0.336178
0.466278
0.338576
0.237913
0.237899
0.239463
0.239448
0.284701
0.284697
0.28686
0.286856
0.297471
0.442685
0.299238
0.444941
0.336151
0.463234
0.338548
0.466182
0.737551
0.885936
0.740684
0.889944
0.704241
0.897607
0.708248
0.902355
0.877701
0.73121
0.881937
0.734516
0.887913
0.695973
0.892943
0.700215
0.438183
0.293945
0.440563
0.295809
0.457093
0.331101
0.460213
0.333637
0.23479
0.234776
0.236423
0.23641
0.280119
0.280116
0.282403
0.282399
0.293901
0.438103
0.295763
0.440481
0.331076
0.457005
0.333611
0.460122
0.731122
0.877674
0.734425
0.881907
0.69576
0.887571
0.699997
0.892592
0.868998
0.724444
0.873449
0.727914
0.877337
0.687031
0.882629
0.691499
0.43336
0.290188
0.435857
0.292143
0.450531
0.325757
0.453814
0.328426
0.231504
0.231491
0.233218
0.233205
0.275296
0.275294
0.2777
0.277697
0.290146
0.433283
0.2921
0.435779
0.325735
0.450448
0.328402
0.453728
0.72436
0.868974
0.727828
0.873423
0.686827
0.877007
0.69129
0.882291
0.85988
0.717361
0.864535
0.720987
0.866259
0.677656
0.8718
0.682339
0.42831
0.286253
0.430919
0.288296
0.443656
0.320159
0.447094
0.322954
0.228063
0.228051
0.229853
0.229841
0.270246
0.270244
0.272763
0.272761
0.286213
0.428237
0.288255
0.430844
0.32014
0.443579
0.322933
0.447014
0.717283
0.859861
0.720905
0.864514
0.677461
0.865942
0.68214
0.871474
0.850373
0.70998
0.85522
0.713753
0.854713
0.66788
0.860485
0.672758
0.423045
0.28215
0.42576
0.284276
0.43649
0.314324
0.440072
0.317236
0.224475
0.224464
0.226338
0.226326
0.264981
0.26498
0.267605
0.267603
0.282112
0.422976
0.284237
0.425689
0.314307
0.436418
0.317219
0.439997
0.709906
0.850358
0.713677
0.855203
0.667695
0.854409
0.672568
0.860173
0.840501
0.702305
0.845527
0.706223
0.842731
0.657768
0.84872
0.662813
0.417574
0.277886
0.420391
0.280091
0.42905
0.308262
0.432769
0.311288
0.220745
0.220735
0.222678
0.222667
0.259513
0.259512
0.262239
0.262238
0.27785
0.417508
0.280054
0.420323
0.308248
0.428983
0.311273
0.4327
0.702236
0.84049
0.706151
0.845513
0.657593
0.842441
0.662633
0.848422
0.83029
0.694357
0.835483
0.698409
0.830318
0.647289
0.836526
0.652524
0.411899
0.27346
0.414818
0.275746
0.421331
0.301973
0.425192
0.305115
0.216873
0.216864
0.218877
0.218867
0.253841
0.253842
0.25667
0.256671
0.273427
0.411838
0.275712
0.414754
0.301962
0.421271
0.305103
0.425129
0.694293
0.830283
0.698342
0.835473
0.647124
0.830042
0.652354
0.836241
0.819747
0.686132
0.825105
0.690324
0.817455
0.636414
0.823894
0.641853
0.406013
0.268863
0.409039
0.271237
0.413316
0.295443
0.41733
0.29871
0.212849
0.212841
0.214931
0.214922
0.247953
0.247955
0.250895
0.250896
0.268832
0.405956
0.271205
0.40898
0.295434
0.413261
0.2987
0.417273
0.686073
0.819744
0.690262
0.825099
0.636259
0.817193
0.641692
0.823623
0.808855
0.677601
0.814391
0.681951
0.80408
0.625091
0.810788
0.630765
0.399882
0.264064
0.403036
0.266543
0.404954
0.288626
0.409152
0.292045
0.208644
0.208636
0.210821
0.210812
0.241809
0.241811
0.244887
0.244889
0.264036
0.399829
0.266514
0.40298
0.288621
0.404905
0.292038
0.4091
0.677547
0.808856
0.681894
0.81439
0.624946
0.803832
0.630615
0.810531
0.797554
0.668694
0.803304
0.673242
0.790062
0.613209
0.797114
0.619182
0.393443
0.259006
0.39676
0.261623
0.396149
0.281441
0.400585
0.285058
0.204205
0.204198
0.206506
0.206499
0.235332
0.235335
0.23859
0.238592
0.25898
0.393394
0.261596
0.396709
0.281439
0.396106
0.285055
0.400539
0.668646
0.79756
0.673191
0.803307
0.613076
0.78983
0.619043
0.796873
0.785735
0.659301
0.79176
0.664107
0.775187
0.600578
0.782702
0.606958
0.38659
0.253597
0.390129
0.256402
0.386745
0.273755
0.391505
0.277644
0.199445
0.199438
0.201918
0.201912
0.2284
0.228404
0.231905
0.231908
0.253574
0.386546
0.256378
0.390082
0.273756
0.386709
0.277643
0.391466
0.659258
0.785745
0.664061
0.791767
0.600455
0.774972
0.60683
0.782477
0.773225
0.649268
0.77962
0.654416
0.759141
0.58692
0.767289
0.593849
0.379175
0.247705
0.383015
0.25077
0.376527
0.265382
0.381726
0.269642
0.19424
0.194235
0.196953
0.196947
0.22084
0.220845
0.224685
0.224689
0.247685
0.379136
0.250748
0.382973
0.265387
0.376499
0.269645
0.381694
0.649232
0.77324
0.654377
0.779632
0.586811
0.758944
0.593734
0.767081
0.759779
0.638359
0.766675
0.643978
0.741499
0.571933
0.750508
0.579574
0.371001
0.241151
0.375248
0.244571
0.365215
0.256079
0.371002
0.26084
0.188423
0.188419
0.191465
0.19146
0.212428
0.212434
0.216732
0.216737
0.241135
0.370968
0.244553
0.375212
0.256088
0.365194
0.260847
0.370978
0.63833
0.7598
0.643945
0.766693
0.571839
0.741322
0.579473
0.75032
0.745099
0.626273
0.752649
0.63252
0.7217
0.555221
0.731867
0.56378
0.361784
0.233679
0.366593
0.237595
0.352438
0.245531
0.359012
0.250961
0.18176
0.181757
0.185258
0.185255
0.20288
0.202888
0.207792
0.207799
0.233667
0.361758
0.237581
0.366563
0.245544
0.352428
0.250972
0.358997
0.626252
0.745127
0.632495
0.752673
0.555144
0.721547
0.563694
0.7317
0.728981
0.612547
0.737249
0.619695
0.69916
0.536323
0.710759
0.546042
0.351
0.22485
0.356689
0.229519
0.337638
0.233301
0.345318
0.239638
0.173892
0.173891
0.178047
0.178045
0.191855
0.191865
0.197553
0.197561
0.224842
0.350982
0.229509
0.356667
0.233321
0.33764
0.239655
0.345314
0.612536
0.729019
0.619679
0.737281
0.536267
0.699035
0.545975
0.710618
0.712595
0.595214
0.720587
0.604682
0.674321
0.514166
0.686818
0.525784
0.336903
0.213657
0.344641
0.219693
0.319515
0.218732
0.329118
0.226338
0.164251
0.164251
0.169375
0.169374
0.179054
0.179066
0.185662
0.185673
0.213656
0.336894
0.219688
0.344627
0.218759
0.319532
0.226361
0.329127
0.595214
0.712644
0.604676
0.72063
0.514135
0.674231
0.52574
0.686709
0.711075
0.555911
0.707646
0.582086
0.650335
0.475148
0.662578
0.499384
0.312285
0.198135
0.326832
0.20659
0.293999
0.201324
0.308085
0.210327
0.152324
0.152326
0.158604
0.158606
0.164845
0.164858
0.172019
0.172031
0.19814
0.312287
0.206591
0.326829
0.201357
0.29403
0.210358
0.30811
0.555925
0.711137
0.582092
0.707701
0.475146
0.650288
0.499368
0.662507
0.453202
0.35584
0.237883
0.189871
0.395464
0.309838
0.195089
0.157206
0.139522
0.0447137
0.049125
0.0111584
0.112132
0.0309611
0.0347891
0.00847373
0.0130057
0.0130159
0.00486638
0.00486832
0.00801936
0.00802622
0.00441275
0.00441353
0.0447398
0.139545
0.0111667
0.049155
0.0309827
0.112153
0.00847886
0.0348146
0.355877
0.453275
0.189918
0.23795
0.309872
0.395526
0.157248
0.195144
0.714953
0.572927
0.604764
0.479421
0.637863
0.507789
0.536064
0.422742
0.290234
0.146671
0.221114
0.0956322
0.242909
0.114313
0.182967
0.0723493
0.0863289
0.0863368
0.0431141
0.0431274
0.0617149
0.0617232
0.0274606
0.027473
0.146685
0.290246
0.0956525
0.221131
0.114329
0.242922
0.0723679
0.182984
0.572951
0.715019
0.47945
0.604833
0.507811
0.63792
0.42277
0.536124
0.869099
0.708866
0.800345
0.647516
0.77986
0.631158
0.716488
0.57545
0.40036
0.237335
0.349332
0.194227
0.338737
0.190638
0.294222
0.154083
0.167811
0.167812
0.128562
0.128567
0.129251
0.129254
0.0963846
0.0963903
0.237335
0.400357
0.194234
0.349336
0.190643
0.338739
0.154093
0.29423
0.708878
0.869162
0.647534
0.800409
0.63117
0.779913
0.575467
0.716543
0.972987
0.803713
0.925685
0.76023
0.876289
0.717844
0.832238
0.677985
0.482992
0.309921
0.44462
0.27587
0.411448
0.253027
0.377574
0.223641
0.235176
0.235171
0.203418
0.203417
0.18657
0.186568
0.159431
0.159432
0.309906
0.482969
0.275862
0.444607
0.253018
0.411431
0.22364
0.377566
0.803711
0.973049
0.760235
0.925747
0.71784
0.876335
0.677989
0.832288
1.04603
0.871794
1.01269
0.840591
0.944924
0.780736
0.913499
0.751831
0.544626
0.365636
0.516178
0.339785
0.466247
0.301455
0.44089
0.278933
0.287601
0.287591
0.263214
0.263207
0.231679
0.231672
0.210653
0.210648
0.365604
0.544583
0.339762
0.516145
0.301432
0.46621
0.278917
0.440863
0.871779
1.04609
0.840582
1.01275
0.780715
0.944964
0.751818
0.913542
1.09697
0.919945
1.07388
0.898053
0.993227
0.825589
0.971278
0.805157
0.589297
0.406696
0.568895
0.38788
0.506234
0.337348
0.487943
0.320881
0.326551
0.326535
0.308672
0.308659
0.26535
0.265338
0.24988
0.249871
0.40665
0.589236
0.387841
0.568842
0.33731
0.506177
0.320851
0.487896
0.919918
1.09703
0.898032
1.07394
0.82555
0.993261
0.805126
0.971315
1.13129
0.952762
1.11594
0.938044
1.02602
0.856328
1.01132
0.842524
0.620347
0.435591
0.606372
0.422552
0.534114
0.362646
0.521557
0.351226
0.354126
0.354105
0.341665
0.341647
0.289205
0.289188
0.278425
0.27841
0.435533
0.62027
0.4225
0.606303
0.362596
0.534039
0.351183
0.52149
0.952727
1.13136
0.938012
1.116
0.856274
1.02605
0.842477
1.01135
1.15319
0.973944
1.1436
0.964637
1.04704
0.876229
1.03782
0.867477
0.640799
0.454849
0.631777
0.44633
0.552477
0.379475
0.544375
0.372033
0.372605
0.372582
0.364418
0.364396
0.305149
0.30513
0.29809
0.298072
0.454781
0.64071
0.446266
0.631694
0.379415
0.552388
0.371978
0.544293
0.973901
1.15326
0.964598
1.14367
0.876164
1.04706
0.867417
1.03784
1.16596
0.986532
1.16057
0.981181
1.05939
0.888082
1.05416
0.883038
0.653318
0.466818
0.64796
0.461673
0.563684
0.389882
0.558889
0.385414
0.384169
0.384143
0.379188
0.379163
0.315068
0.315046
0.310801
0.31078
0.466743
0.65322
0.461601
0.647866
0.389815
0.563585
0.38535
0.558795
0.986485
1.16604
0.981136
1.16064
0.888008
1.05941
0.882968
1.05418
1.17231
0.99304
1.16985
0.990463
1.06559
0.894233
1.06316
0.891789
0.660172
0.473551
0.657401
0.470799
0.569788
0.395687
0.567321
0.393319
0.390751
0.390723
0.388048
0.38802
0.320659
0.320634
0.318368
0.318345
0.473471
0.660069
0.470721
0.6573
0.395615
0.569682
0.393249
0.567218
0.992992
1.17239
0.990415
1.16993
0.894154
1.06562
0.891711
1.06319
1.17424
0.995387
1.17377
0.994685
1.06759
0.8965
1.06706
0.895804
0.663145
0.476693
0.662125
0.475562
0.572414
0.398355
0.571514
0.3974
0.393914
0.393885
0.392754
0.392725
0.323299
0.323274
0.322337
0.322312
0.476611
0.663039
0.47548
0.66202
0.39828
0.572305
0.397326
0.571405
0.995339
1.17433
0.994636
1.17386
0.896419
1.06761
0.895723
1.06708
1.17334
0.995045
1.17412
0.995525
1.06689
0.896274
1.06754
0.896668
0.66358
0.477477
0.663688
0.4774
0.572784
0.398979
0.572883
0.398936
0.39483
0.3948
0.394675
0.394645
0.324018
0.323993
0.323914
0.323889
0.477394
0.663473
0.477317
0.663581
0.398903
0.572673
0.398861
0.572772
0.994998
1.17343
0.995477
1.1742
0.896192
1.06692
0.896586
1.06757
1.17052
0.992942
1.17217
0.994226
1.0644
0.894439
1.06587
0.895571
0.662435
0.47683
0.663248
0.477375
0.571771
0.398388
0.572489
0.398874
0.394389
0.394359
0.394816
0.394786
0.3236
0.323575
0.323983
0.323958
0.476747
0.662328
0.477292
0.663141
0.398312
0.57166
0.398798
0.572378
0.992897
1.17061
0.99418
1.17226
0.894359
1.06443
0.89549
1.0659
1.16645
0.9897
1.16866
0.991493
1.06074
0.891563
1.06273
0.893156
0.660233
0.47521
0.661518
0.476196
0.56983
0.396963
0.570958
0.397822
0.39303
0.393001
0.393879
0.393849
0.322405
0.322379
0.323142
0.323116
0.475128
0.660128
0.476113
0.661412
0.396888
0.56972
0.397747
0.570848
0.989657
1.16654
0.991448
1.16875
0.891484
1.06077
0.893076
1.06277
1.16149
0.985684
1.16412
0.987831
1.05627
0.88799
1.05864
0.889902
0.657359
0.472995
0.658948
0.474248
0.567308
0.395038
0.568699
0.396122
0.391115
0.391086
0.392212
0.392183
0.320749
0.320724
0.321692
0.321667
0.472914
0.657256
0.474166
0.658844
0.394964
0.5672
0.396048
0.568591
0.985643
1.16159
0.987789
1.16421
0.887913
1.0563
0.889824
1.05867
1.15588
0.981111
1.15882
0.983519
1.05119
0.883915
1.05385
0.886062
0.654016
0.470373
0.655823
0.471814
0.56438
0.392769
0.56596
0.394013
0.388824
0.388796
0.390094
0.390065
0.318779
0.318755
0.319867
0.319842
0.470294
0.653915
0.471733
0.655721
0.392697
0.564274
0.393939
0.565854
0.981072
1.15598
0.983479
1.15892
0.883841
1.05122
0.885987
1.05388
1.14971
0.976078
1.15292
0.978708
1.04558
0.879425
1.0485
0.881773
0.650303
0.467438
0.652287
0.469028
0.561128
0.390233
0.562864
0.391604
0.386248
0.38622
0.387653
0.387625
0.316569
0.316545
0.317771
0.317747
0.46736
0.650205
0.468949
0.652188
0.390162
0.561025
0.391532
0.56276
0.976043
1.14981
0.978671
1.15302
0.879354
1.04562
0.881701
1.04854
1.14301
0.970625
1.14648
0.973463
1.03949
0.874553
1.04265
0.877091
0.646262
0.464233
0.648407
0.465954
0.557587
0.387463
0.559465
0.388949
0.383429
0.383401
0.384952
0.384924
0.314151
0.314127
0.315455
0.315431
0.464157
0.646167
0.465877
0.64831
0.387394
0.557486
0.388879
0.559364
0.970593
1.14311
0.973429
1.14658
0.874485
1.03953
0.877021
1.04269
1.13579
0.964762
1.13951
0.967801
1.03291
0.869307
1.03631
0.872029
0.641909
0.460773
0.644208
0.46262
0.553768
0.384472
0.555784
0.386067
0.380382
0.380356
0.382017
0.38199
0.311536
0.311514
0.312938
0.312914
0.460699
0.641816
0.462545
0.644114
0.384404
0.553671
0.385999
0.555685
0.964733
1.13589
0.96777
1.13962
0.869243
1.03296
0.871963
1.03636
1.12804
0.958497
1.13203
0.961739
1.02585
0.863693
1.0295
0.866601
0.637248
0.457065
0.639702
0.459036
0.549676
0.381263
0.55183
0.382967
0.377114
0.377088
0.37886
0.378834
0.30873
0.308707
0.310227
0.310204
0.456993
0.637159
0.458963
0.639611
0.381197
0.549582
0.3829
0.551734
0.958471
1.12815
0.961711
1.13214
0.863633
1.0259
0.866538
1.02954
1.11977
0.951817
1.12403
0.955266
1.0183
0.857705
1.02219
0.860799
0.632277
0.453106
0.634886
0.455203
0.545308
0.377834
0.547599
0.379648
0.373624
0.373599
0.375481
0.375455
0.305729
0.305708
0.307323
0.307301
0.453037
0.632191
0.455132
0.634799
0.37777
0.545217
0.379583
0.547507
0.951794
1.11988
0.955241
1.12414
0.857647
1.01835
0.86074
1.02224
1.11097
0.944723
1.11549
0.948378
1.01025
0.851339
1.01439
0.854622
0.626994
0.448897
0.629758
0.451118
0.540661
0.374185
0.543092
0.376109
0.369911
0.369886
0.371878
0.371853
0.302535
0.302514
0.304226
0.304204
0.448829
0.626912
0.451049
0.629674
0.374123
0.540573
0.376046
0.543002
0.944704
1.11108
0.948357
1.1156
0.851285
1.01031
0.854566
1.01444
1.10164
0.937221
1.10642
0.94108
1.00171
0.844597
1.00609
0.848067
0.621401
0.444436
0.62432
0.446782
0.535736
0.370315
0.538306
0.372349
0.365975
0.365951
0.368053
0.368029
0.299146
0.299126
0.300934
0.300913
0.444371
0.621322
0.446716
0.624239
0.370256
0.535652
0.372288
0.538219
0.937205
1.10176
0.941062
1.10654
0.844547
1.00177
0.848015
1.00615
1.09179
0.929307
1.09683
0.933371
0.992685
0.837483
0.997308
0.841138
0.615499
0.439728
0.618571
0.442197
0.530538
0.366228
0.533243
0.36837
0.361818
0.361795
0.364005
0.363982
0.295567
0.295547
0.297449
0.297429
0.439665
0.615424
0.442133
0.618494
0.366171
0.530457
0.368312
0.53316
0.929295
1.09191
0.933356
1.09695
0.837437
0.992743
0.841089
0.997364
1.08144
0.920999
1.08672
0.925255
0.98319
0.83001
0.988043
0.833841
0.609298
0.434777
0.612518
0.437365
0.525073
0.361931
0.52791
0.364176
0.357447
0.357425
0.35974
0.359718
0.291801
0.291783
0.293775
0.293756
0.434717
0.609227
0.437304
0.612444
0.361876
0.524996
0.36412
0.527831
0.92099
1.08155
0.925244
1.08684
0.829968
0.983251
0.833797
0.988102
1.07061
0.912312
1.07613
0.916755
0.973254
0.822201
0.978324
0.826196
0.60281
0.429594
0.606171
0.432296
0.519356
0.357431
0.522316
0.359775
0.352868
0.352847
0.355263
0.355242
0.287858
0.28784
0.289919
0.289901
0.429536
0.602742
0.432238
0.606101
0.357379
0.519283
0.359722
0.522241
0.912306
1.07073
0.916748
1.07625
0.822163
0.973318
0.826156
0.978386
1.05934
0.903264
1.06507
0.907882
0.962902
0.814076
0.968177
0.818228
0.596046
0.424186
0.599542
0.426999
0.513398
0.352738
0.516477
0.355177
0.348089
0.348069
0.350582
0.350562
0.283744
0.283727
0.285888
0.285871
0.424132
0.595983
0.426943
0.599476
0.352688
0.513328
0.355127
0.516406
0.903262
1.05946
0.907879
1.06519
0.814042
0.962968
0.818192
0.968241
1.04766
0.893914
1.0536
0.898678
0.952168
0.80562
0.957625
0.809936
0.589028
0.418563
0.592649
0.421482
0.507203
0.347858
0.510399
0.35039
0.343114
0.343095
0.345705
0.345685
0.279464
0.279448
0.28169
0.281674
0.418511
0.588968
0.421429
0.592587
0.347811
0.507138
0.350341
0.510332
0.893916
1.04779
0.898677
1.05372
0.80559
0.952237
0.809904
0.957692
1.0356
0.884238
1.04172
0.889168
0.941089
0.79687
0.946716
0.801327
0.581745
0.412716
0.585499
0.415748
0.500779
0.34279
0.504089
0.345416
0.337937
0.337919
0.340629
0.340611
0.275016
0.275001
0.277327
0.277311
0.412667
0.581689
0.415697
0.585441
0.342745
0.500718
0.34537
0.504025
0.884244
1.03572
0.889172
1.04184
0.796844
0.941161
0.801299
0.946786
1.02315
0.874224
1.02946
0.879322
0.929674
0.787831
0.935468
0.792433
0.574179
0.406626
0.578077
0.409782
0.494115
0.337519
0.497547
0.340248
0.332535
0.332518
0.335342
0.335325
0.270386
0.270372
0.27279
0.272775
0.406579
0.574127
0.409734
0.578022
0.337477
0.494058
0.340205
0.497487
0.874233
1.02327
0.879329
1.02959
0.787809
0.929748
0.79241
0.935541
1.01031
0.863851
1.01682
0.869132
0.917906
0.778473
0.923879
0.783239
0.566292
0.400249
0.570356
0.403554
0.487177
0.332011
0.49075
0.334864
0.326866
0.32685
0.329812
0.329796
0.265537
0.265524
0.268055
0.268041
0.400205
0.566245
0.403509
0.570306
0.331972
0.487124
0.334823
0.490695
0.863863
1.01044
0.869142
1.01695
0.778455
0.917982
0.783219
0.923954
0.997048
0.853058
1.00378
0.858557
0.905738
0.768737
0.911918
0.7737
0.558012
0.39351
0.562282
0.397006
0.479901
0.326202
0.483652
0.329214
0.320855
0.32084
0.323982
0.323967
0.260409
0.260397
0.263075
0.263062
0.393469
0.557968
0.396964
0.562236
0.326166
0.479851
0.329176
0.483601
0.853074
0.997173
0.858571
1.0039
0.768724
0.905816
0.773685
0.911995
0.983265
0.841743
0.990268
0.847518
0.893078
0.758522
0.899517
0.76374
0.549223
0.386294
0.553763
0.390044
0.472181
0.319991
0.476168
0.323218
0.314387
0.314374
0.317758
0.317744
0.254903
0.254892
0.257771
0.257759
0.386257
0.549184
0.390005
0.553721
0.319958
0.472137
0.323183
0.476121
0.841762
0.983391
0.847535
0.990393
0.758513
0.893158
0.763729
0.899596
0.968829
0.829752
0.976176
0.835885
0.879783
0.747657
0.886558
0.753221
0.539759
0.378436
0.544658
0.382529
0.463867
0.313232
0.468172
0.316752
0.307303
0.307291
0.311004
0.310991
0.248881
0.248871
0.252026
0.252015
0.378403
0.539725
0.382493
0.544621
0.313203
0.463827
0.316721
0.46813
0.829775
0.968955
0.835905
0.976302
0.747653
0.879865
0.753215
0.886639
0.953575
0.816899
0.96135
0.823485
0.865664
0.735957
0.872876
0.741963
0.529404
0.369712
0.534778
0.374269
0.454749
0.305726
0.459484
0.309647
0.299379
0.299368
0.30353
0.303518
0.242149
0.242141
0.245675
0.245666
0.369683
0.529375
0.374237
0.534746
0.305701
0.454715
0.309619
0.459447
0.816925
0.953702
0.82351
0.961476
0.735958
0.865749
0.741961
0.872959
0.937386
0.802965
0.94563
0.810119
0.850521
0.723164
0.858264
0.729752
0.517839
0.35978
0.523865
0.364993
0.444528
0.297173
0.44986
0.301663
0.290277
0.290268
0.295068
0.295057
0.234423
0.234416
0.238488
0.23848
0.359755
0.517816
0.364965
0.523839
0.297152
0.444501
0.301639
0.449829
0.802997
0.937514
0.810147
0.945757
0.723172
0.850609
0.729756
0.85835
0.920636
0.787644
0.929036
0.795548
0.83442
0.708849
0.842584
0.716278
0.504407
0.34798
0.511494
0.354243
0.432581
0.287006
0.438896
0.292402
0.279416
0.279408
0.28518
0.285172
0.225221
0.225216
0.2301
0.230094
0.34796
0.504391
0.35422
0.511475
0.286989
0.432561
0.292383
0.438871
0.78768
0.920766
0.795581
0.929164
0.708863
0.834512
0.716288
0.842674
0.907069
0.769069
0.912838
0.779128
0.819777
0.690883
0.826483
0.700706
0.48672
0.332722
0.496473
0.341004
0.416696
0.273853
0.425475
0.280993
0.265769
0.265764
0.273078
0.273072
0.213706
0.213703
0.219867
0.219862
0.332708
0.486711
0.340987
0.49646
0.273842
0.416684
0.28098
0.425459
0.769109
0.907201
0.779166
0.912968
0.690904
0.819874
0.700724
0.826578
0.925492
0.725786
0.908124
0.755058
0.829608
0.648683
0.818202
0.677052
0.455333
0.311144
0.473901
0.322916
0.388173
0.255176
0.405084
0.26538
0.248422
0.248419
0.257596
0.257592
0.199111
0.19911
0.206828
0.206826
0.311137
0.455333
0.322906
0.473896
0.255172
0.388171
0.265373
0.405077
0.725828
0.925625
0.755099
0.908257
0.648711
0.82971
0.677076
0.818302
0.517172
0.408057
0.287406
0.228565
0.49122
0.386654
0.267258
0.212262
0.173077
0.0639108
0.068136
0.0157138
0.159038
0.0555656
0.0599003
0.0135953
0.0222495
0.0222639
0.00609283
0.00609663
0.0178987
0.0179114
0.00550351
0.00550649
0.0639428
0.173104
0.0157276
0.0681717
0.0555952
0.159064
0.0136067
0.0599337
0.408099
0.517261
0.228618
0.287488
0.386693
0.491301
0.212312
0.267333
0.803502
0.649367
0.681589
0.544177
0.766998
0.617619
0.650211
0.517524
0.349471
0.19106
0.267761
0.127372
0.324482
0.171845
0.24824
0.113669
0.123005
0.123012
0.0675335
0.0675476
0.106767
0.106774
0.0566077
0.0566215
0.191071
0.349481
0.127394
0.26778
0.171858
0.324493
0.11369
0.248258
0.649393
0.803584
0.544211
0.681675
0.617644
0.767073
0.517556
0.650289
0.977944
0.80586
0.899679
0.734796
0.932199
0.764784
0.858323
0.698182
0.481964
0.304253
0.420321
0.250438
0.446892
0.27487
0.390089
0.225941
0.226504
0.226502
0.176758
0.17676
0.200315
0.200314
0.155366
0.15537
0.304245
0.481952
0.25044
0.420321
0.274866
0.446884
0.225946
0.390091
0.805874
0.978025
0.734816
0.899759
0.764797
0.932271
0.698201
0.858395
1.09685
0.916426
1.04269
0.865696
1.04395
0.867921
0.993091
0.820647
0.582155
0.394788
0.535616
0.35234
0.538892
0.357041
0.496189
0.31853
0.31166
0.311651
0.271546
0.27154
0.277168
0.27716
0.240977
0.240973
0.394761
0.582122
0.352323
0.535593
0.357019
0.538864
0.318517
0.496171
0.916429
1.09694
0.865704
1.04277
0.867922
1.04403
0.820653
0.993163
1.18034
0.995819
1.14228
0.959455
1.12228
0.941807
1.08657
0.907973
0.656887
0.4642
0.622406
0.432002
0.607379
0.419948
0.575788
0.390776
0.37786
0.377845
0.347068
0.347056