/*--------------------------------*- C++ -*----------------------------------*\
  =========                 |
  \\      /  F ield         | OpenFOAM: The Open Source CFD Toolbox
   \\    /   O peration     | Website:  https://openfoam.org
    \\  /    A nd           | Version:  9
     \\/     M anipulation  |
\*---------------------------------------------------------------------------*/
FoamFile
{
    format      ascii;
    class       volScalarField;
    location    "0.9";
    object      epsilon;
}
// * * * * * * * * * * * * * * * * * * * * * * * * * * * * * * * * * * * * * //

dimensions      [0 2 -3 0 0 0 0];

internalField   nonuniform List<scalar> 
36360
(
0.423929
0.425904
0.0547663
0.0778266
0.029626
0.0243821
0.00839674
0.00717478
0.036732
0.00511367
0.00783771
0.00535303
0.00647973
0.00502253
0.00599678
0.00630641
0.00381596
0.003816
0.0057057
0.00570568
0.00522762
0.00522762
0.00626935
0.00626934
0.00511338
0.0367281
0.00535311
0.0078376
0.00502255
0.00647956
0.00630638
0.00599676
0.425877
0.423899
0.077824
0.0547637
0.0243796
0.0296234
0.00717472
0.00839666
2.22298
1.70439
1.36756
1.09844
0.805723
0.533496
0.209751
0.162993
0.488005
0.0769563
0.192449
0.016686
0.095736
0.00921085
0.018587
0.00516428
0.00623366
0.00623258
0.00314987
0.00314972
0.00389172
0.00389165
0.00443008
0.00443008
0.0769467
0.487987
0.0166833
0.192431
0.00920962
0.0957248
0.00516416
0.0185847
1.70437
2.22297
1.0984
1.3675
0.533477
0.805699
0.162976
0.209726
3.21392
2.4688
2.81327
2.15118
1.83734
1.23519
1.39049
0.920209
0.9374
0.305959
0.740692
0.198396
0.429265
0.086991
0.264831
0.0316858
0.0659945
0.0659835
0.0238151
0.0238111
0.00832119
0.0083197
0.0045492
0.00454894
0.305943
0.937412
0.198383
0.740689
0.0869782
0.429262
0.0316821
0.264823
2.46888
3.21408
2.15121
2.81333
1.23526
1.83749
0.920226
1.39054
3.66444
2.83823
3.48322
2.68825
2.37179
1.63336
2.1537
1.46835
1.18235
0.452925
1.0811
0.390392
0.658718
0.194125
0.561309
0.145299
0.156822
0.156808
0.115229
0.115218
0.0335016
0.0334928
0.0190704
0.0190667
0.452918
1.18241
0.390387
1.08114
0.194105
0.658745
0.145287
0.561327
2.83841
3.66476
2.68839
3.48344
1.63354
2.37215
1.46848
2.15394
3.85839
3.00041
3.78265
2.93686
2.61164
1.8175
2.5174
1.74498
1.29517
0.525665
1.2507
0.496664
0.770628
0.254246
0.726255
0.230086
0.209113
0.209101
0.187911
0.187901
0.0573133
0.0573005
0.0470028
0.0469935
0.52567
1.29526
0.496672
1.25079
0.254228
0.770689
0.230072
0.726309
3.00067
3.85883
2.93709
3.78301
1.81777
2.61217
1.74521
2.51783
3.9281
3.05966
3.9031
3.0383
2.70198
1.88645
2.66917
1.86158
1.33777
0.553881
1.32238
0.543652
0.81342
0.277385
0.79796
0.269132
0.229813
0.229803
0.222358
0.222351
0.0677809
0.0677657
0.0640358
0.0640239
0.553898
1.3379
0.543672
1.3225
0.277368
0.813508
0.269122
0.798045
3.06
3.92867
3.0386
3.90357
1.88681
2.70265
1.8619
2.66974
3.9399
3.07018
3.93849
3.06868
2.72217
1.90076
2.71785
1.8981
1.34672
0.560285
1.34495
0.558835
0.82297
0.28228
0.820868
0.281235
0.234429
0.234431
0.233381
0.233377
0.0698645
0.069848
0.0694637
0.0694477
0.560363
1.347
0.558881
1.34516
0.282279
0.823156
0.281224
0.820993
3.07076
3.94078
3.06914
3.93917
1.90137
2.72322
1.89855
2.71862
3.92636
3.05949
3.93582
3.06702
2.7149
1.89392
2.72088
1.89927
1.34213
0.558366
1.34566
0.559996
0.820196
0.280854
0.822601
0.28209
0.233283
0.23331
0.234295
0.234306
0.0690842
0.0690702
0.069735
0.0697193
0.558547
1.34257
0.560114
1.34601
0.280885
0.820523
0.282099
0.822833
3.06028
3.92745
3.06771
3.93679
1.89476
2.71628
1.89995
2.72202
3.89972
3.03847
3.91337
3.04916
2.69422
1.87714
2.705
1.8858
1.33139
0.552813
1.33693
0.555689
0.811822
0.276719
0.816138
0.278826
0.229737
0.229797
0.231567
0.231618
0.0671666
0.0671671
0.0681313
0.0681285
0.553101
1.33193
0.555948
1.33746
0.276816
0.8123
0.278906
0.816576
3.03922
3.90058
3.05
3.91445
1.87806
2.6956
1.88672
2.70643
3.8731
3.01829
3.88559
3.02763
2.67316
1.86054
2.68351
1.86866
1.32087
0.547315
1.32597
0.550022
0.803538
0.272696
0.80763
0.274693
0.226228
0.226271
0.227972
0.228033
0.0653442
0.0653439
0.0662514
0.066256
0.547521
1.32123
0.550295
1.32645
0.272765
0.803891
0.274794
0.80808
3.01896
3.87411
3.0286
3.88667
1.86113
2.67388
1.86945
2.68458
3.84901
3.00007
3.86093
3.00898
2.6537
1.84544
2.66326
1.85283
1.31132
0.542248
1.31596
0.544755
0.795864
0.268893
0.799672
0.270799
0.222922
0.222938
0.224578
0.224609
0.063618
0.063614
0.0644851
0.0644848
0.542367
1.31169
0.54492
1.31631
0.268924
0.796084
0.27085
0.799951
3.00049
3.84962
3.00916
3.8613
1.84603
2.65451
1.85335
2.66376
3.82594
2.98287
3.83677
2.99108
2.63445
1.83057
2.64402
1.83797
1.30198
0.537225
1.30662
0.539752
0.788199
0.265102
0.792063
0.267019
0.219648
0.219674
0.221304
0.221328
0.0619192
0.0619189
0.0627782
0.0627781
0.537381
1.30239
0.539891
1.30699
0.265157
0.788495
0.267068
0.79232
2.98347
3.82626
2.99145
3.83728
1.83125
2.63559
1.83859
2.64506
3.80048
2.96452
3.81232
2.97264
2.61523
1.81577
2.62479
1.82303
1.29276
0.532225
1.29728
0.534735
0.780516
0.261286
0.784375
0.263215
0.216364
0.216393
0.218026
0.218057
0.0602283
0.0602324
0.0610833
0.0610881
0.532385
1.29326
0.534901
1.29779
0.261357
0.780838
0.263288
0.784695
2.96682
3.80368
2.97494
3.81472
1.81663
2.61634
1.82384
2.62579
3.77702
2.9477
3.78883
2.95613
2.59531
1.80057
2.60534
1.80826
1.28334
0.527123
1.2881
0.529696
0.772659
0.257432
0.776627
0.259381
0.213046
0.213083
0.214727
0.214765
0.0585428
0.0585453
0.0593949
0.059402
0.527332
1.2839
0.52989
1.28856
0.25751
0.773063
0.259467
0.776997
2.94922
3.77933
2.95751
3.79086
1.80166
2.59693
1.80911
2.60654
3.75265
2.93022
3.76454
2.93866
2.57511
1.78525
2.5849
1.79261
1.27388
0.522045
1.27842
0.524565
0.764796
0.253557
0.768704
0.255511
0.209708
0.209717
0.211394
0.211425
0.0568622
0.0568517
0.0577115
0.057711
0.522149
1.27421
0.524768
1.27906
0.253574
0.765014
0.255574
0.769078
2.92992
3.75257
2.93937
3.76604
1.7859
2.57648
1.79379
2.58674
3.72845
2.91367
3.7401
2.92149
2.55577
1.77067
2.56542
1.778
1.26494
0.517027
1.26942
0.519565
0.756984
0.249646
0.760937
0.251628
0.206348
0.20633
0.208052
0.208049
0.055181
0.0551585
0.0560318
0.0560168
0.517016
1.26489
0.519597
1.26945
0.249608
0.757034
0.251621
0.761045
2.91356
3.72857
2.92103
3.73943
1.7707
2.55623
1.77812
2.56609
3.70403
2.89667
3.71619
2.90515
2.53535
1.75498
2.54567
1.76289
1.25545
0.511793
1.26024
0.514451
0.748787
0.245614
0.752957
0.247664
0.202896
0.202841
0.204653
0.204619
0.0534833
0.0534529
0.0543439
0.0543193
0.511617
1.25485
0.514373
1.25992
0.245513
0.748573
0.247601
0.752888
2.89443
3.70106
2.90366
3.71475
1.75411
2.53427
1.76248
2.5454
3.67496
2.87628
3.68964
2.88638
2.51296
1.73803
2.52422
1.74656
1.24509
0.506267
1.2503
0.509067
0.740143
0.241428
0.744526
0.243555
0.199324
0.199263
0.20114
0.201085
0.0517588
0.0517243
0.0526332
0.0526029
0.506114
1.24491
0.508905
1.24991
0.241307
0.739952
0.243451
0.744327
2.87663
3.67517
2.88556
3.68799
1.73781
2.51267
1.74601
2.52338
3.64448
2.85559
3.6589
2.86529
2.48924
1.72007
2.50111
1.72902
1.23419
0.500514
1.23961
0.503426
0.731081
0.237085
0.735672
0.23929
0.195641
0.195579
0.197511
0.197452
0.0500066
0.0499719
0.0508935
0.0508604
0.500383
1.23419
0.503296
1.23963
0.236958
0.730923
0.239168
0.735502
2.85576
3.64487
2.86617
3.66025
1.72011
2.48946
1.72906
2.5012
3.61245
2.83374
3.6284
2.84438
2.4644
1.7013
2.47685
1.71069
1.22289
0.494553
1.22854
0.497559
0.721652
0.232622
0.726408
0.234878
0.19187
0.191822
0.193778
0.193725
0.0482438
0.0482128
0.0491329
0.0491021
0.494509
1.22324
0.497478
1.2287
0.232518
0.72163
0.234769
0.726323
2.83595
3.61509
2.84528
3.62909
1.70192
2.46541
1.71098
2.47733
3.58071
2.81295
3.59562
2.82257
2.43879
1.68207
2.4515
1.69157
1.21141
0.488496
1.21708
0.491532
0.712035
0.228101
0.716855
0.230377
0.18806
0.188027
0.189981
0.189945
0.0464905
0.0464632
0.0473723
0.0473454
0.488513
1.21182
0.491538
1.21752
0.228023
0.71212
0.230295
0.716911
2.81366
3.58239
2.82454
3.59869
1.68289
2.44017
1.69235
2.45277
3.54956
2.79249
3.56466
2.80221
2.41331
1.66306
2.42591
1.67245
1.20016
0.482459
1.2057
0.485483
0.702402
0.223555
0.707235
0.225846
0.18424
0.18421
0.186167
0.186139
0.0447553
0.044731
0.0456279
0.0456042
0.482459
1.20036
0.48551
1.20606
0.223485
0.702458
0.22578
0.707326
2.79164
3.54895
2.80214
3.56513
1.66361
2.41441
1.67321
2.42722
3.51734
2.77138
3.5334
2.7818
2.38765
1.64383
2.40054
1.65349
1.18884
0.476355
1.19453
0.479436
0.6926
0.218937
0.697548
0.221272
0.180373
0.180346
0.182331
0.182305
0.0430244
0.0430033
0.0438977
0.043877
0.476335
1.18885
0.47943
1.19458
0.218879
0.692638
0.221214
0.697595
2.77048
3.51621
2.78045
3.53179
1.64411
2.38827
1.6538
2.40125
3.4821
2.74827
3.49962
2.75964
2.36032
1.62333
2.37411
1.63366
1.17679
0.469967
1.18287
0.473215
0.682318
0.214136
0.687545
0.216581
0.176363
0.176338
0.178407
0.178385
0.041258
0.0412401
0.0421551
0.0421377
0.469951
1.17685
0.473207
1.1829
0.214092
0.682365
0.216537
0.687599
2.74812
3.48181
2.75884
3.49859
1.62365
2.36095
1.63394
2.37467
3.44387
2.72298
3.46305
2.73562
2.33069
1.60098
2.3458
1.61239
1.16362
0.463056
1.17035
0.466602
0.671189
0.208992
0.676896
0.211627
0.172076
0.172054
0.174274
0.174255
0.0394083
0.0393923
0.0403513
0.0403364
0.463048
1.16372
0.466601
1.17046
0.208958
0.671244
0.211595
0.676956
2.72328
3.4444
2.73587
3.46339
1.60131
2.33136
1.61273
2.34644
3.40214
2.69508
3.42298
2.70895
2.29832
1.57663
2.31472
1.58893
1.14911
0.455515
1.15648
0.459365
0.65909
0.203451
0.665257
0.206279
0.167458
0.167438
0.169818
0.169801
0.037466
0.0374504
0.0384526
0.0384387
0.455511
1.14922
0.45937
1.1566
0.20342
0.659149
0.206254
0.665325
2.69539
3.40267
2.70926
3.4235
1.57695
2.29898
1.58926
2.31535
3.35807
2.66543
3.37993
2.68006
2.26408
1.55103
2.28132
1.5639
1.13367
0.447502
1.14145
0.451565
0.646272
0.197605
0.652766
0.20057
0.162582
0.162561
0.165058
0.165041
0.0354666
0.035451
0.0364756
0.0364617
0.447496
1.13377
0.45157
1.14157
0.197573
0.646328
0.200545
0.652834
2.66572
3.35859
2.68037
3.38044
1.55135
2.26473
1.56423
2.28194
3.31253
2.6347
3.33506
2.64982
2.2286
1.52447
2.2464
1.53779
1.11764
0.439182
1.12569
0.443381
0.63296
0.191568
0.639677
0.194615
0.157548
0.157524
0.160091
0.160072
0.0334557
0.0334402
0.0344648
0.0344509
0.439172
1.11773
0.443383
1.1258
0.191533
0.633011
0.194587
0.639739
2.63499
3.31305
2.65012
3.33556
1.52478
2.22923
1.53811
2.24701
3.266
2.60325
3.28898
2.61869
2.19229
1.49725
2.21046
1.51086
1.10121
0.430673
1.10943
0.434954
0.619332
0.18543
0.626187
0.188517
0.152435
0.152411
0.155008
0.154988
0.0314684
0.0314533
0.0324617
0.032448
0.43066
1.1013
0.434952
1.10954
0.185394
0.619378
0.188488
0.626244
2.60353
3.26651
2.61899
3.28946
1.49755
2.19291
1.51117
2.21106
3.21883
2.57131
3.24209
2.58697
2.15546
1.46963
2.17385
1.48342
1.08453
0.422056
1.09286
0.426382
0.605519
0.179257
0.612451
0.182354
0.147302
0.147278
0.149879
0.149858
0.029529
0.0295142
0.0304955
0.0304821
0.422041
1.08461
0.426378
1.09296
0.179221
0.605561
0.182324
0.612505
2.57158
3.21933
2.58726
3.24257
1.46992
2.15607
1.48372
2.17444
3.1713
2.53905
3.19471
2.55485
2.11839
1.44182
2.13688
1.45568
1.0677
0.413398
1.0761
0.417737
0.591625
0.1731
0.598586
0.176183
0.142195
0.14217
0.144754
0.144732
0.0276548
0.0276404
0.0285866
0.0285735
0.413381
1.06778
0.417731
1.07619
0.173063
0.591664
0.176152
0.598636
2.53931
3.1718
2.55513
3.19518
1.44211
2.11899
1.45597
2.13746
3.12368
2.50661
3.14712
2.52249
2.08126
1.41398
2.09976
1.42784
1.05081
0.404747
1.05923
0.409077
0.577733
0.167
0.584684
0.170049
0.137149
0.137123
0.139673
0.13965
0.0258584
0.0258445
0.0267496
0.0267369
0.404729
1.05089
0.409069
1.05932
0.166963
0.57777
0.170017
0.58473
2.50687
3.12417
2.52276
3.14758
1.41426
2.08185
1.42812
2.10033
3.07613
2.47409
3.09952
2.49001
2.04419
1.3862
2.06266
1.40003
1.03391
0.396136
1.04233
0.400444
0.563898
0.160989
0.570816
0.16399
0.132192
0.132165
0.134668
0.134645
0.0241488
0.0241353
0.0249955
0.0249832
0.396116
1.03398
0.400434
1.04242
0.160951
0.563931
0.163958
0.57086
2.47434
3.07661
2.49028
3.09998
1.38647
2.04477
1.4003
2.06322
3.02855
2.44135
3.052
2.45742
2.007
1.35835
2.02558
1.37225
1.01691
0.387543
1.02541
0.39185
0.550086
0.155073
0.557005
0.158028
0.12733
0.127302
0.12976
0.129736
0.0225294
0.0225164
0.0233308
0.0233188
0.387521
1.01698
0.391839
1.02549
0.155035
0.550116
0.157995
0.557045
2.4416
3.02902
2.45768
3.05245
1.35861
2.00757
1.37252
2.02613
2.98018
2.40779
3.00419
2.4244
1.96872
1.32976
1.98805
1.34417
0.999435
0.378788
1.00826
0.383216
0.536027
0.149187
0.543129
0.152143
0.122504
0.122476
0.12493
0.124906
0.0209907
0.0209782
0.0217541
0.0217425
0.378765
0.999501
0.383202
1.00834
0.149149
0.536054
0.15211
0.543166
2.40802
2.98064
2.42465
3.00463
1.33001
1.96928
1.34443
1.98859
2.92855
2.37146
2.95468
2.38982
1.92646
1.29849
1.94833
1.3146
0.980237
0.369261
0.99016
0.374196
0.520812
0.143049
0.528671
0.146189
0.117465
0.117436
0.120048
0.120024
0.0194862
0.0194742
0.0202421
0.020231
0.369237
0.9803
0.374181
0.990238
0.143011
0.520837
0.146156
0.528705
2.37168
2.929
2.39006
2.95511
1.29873
1.927
1.31485
1.94886
2.86707
2.32709
2.89937
2.35053
1.87311
1.26008
1.9018
1.28054
0.955943
0.357256
0.969069
0.363755
0.502007
0.135816
0.512115
0.139665
0.111459
0.111431
0.11467
0.114645
0.0178695
0.0178583
0.0187095
0.018699
0.357232
0.956004
0.36374
0.969144
0.135779
0.502031
0.139632
0.512146
2.32731
2.8675
2.35076
2.89979
1.26032
1.87364
1.28079
1.90231
2.77892
2.25637
2.82764
2.29708
1.79373
1.20445
1.83793
1.23543
0.916449
0.33829
0.939271
0.349118
0.473678
0.125409
0.489633
0.13121
0.102654
0.102626
0.107584
0.10756
0.0157893
0.015779
0.01692
0.0169102
0.338265
0.916508
0.349103
0.939343
0.125373
0.473699
0.131178
0.489662
2.25658
2.77935
2.29731
2.82805
1.20468
1.79424
1.23567
1.83843
2.62344
2.05752
2.71427
2.18996
1.65457
1.0862
1.73607
1.16051
0.826073
0.302085
0.881898
0.323169
0.42158
0.108307
0.452006
0.117899
0.0881913
0.0881574
0.0962564
0.0962307
0.0128014
0.0127916
0.0144193
0.0144103
0.302044
0.826111
0.323149
0.881964
0.108265
0.421586
0.117866
0.452031
2.05772
2.6239
2.19018
2.71469
1.08642
1.65511
1.16075
1.73657
0.679147
0.616294
0.0770059
0.0945389
0.587855
0.536977
0.0687074
0.0820816
0.0720673
0.0070488
0.00868224
0.00530032
0.0557529
0.00611978
0.00816005
0.00532874
0.0035843
0.00358428
0.00581237
0.00581236
0.0036325
0.00363253
0.00584685
0.00584682
0.00704785
0.0720534
0.0053003
0.00868177
0.0061193
0.055744
0.00532872
0.00815978
0.616228
0.679081
0.0945294
0.0769972
0.536927
0.587803
0.0820753
0.0687015
3.07703
2.34882
2.03119
1.57002
2.78249
2.1209
1.80506
1.4044
0.831399
0.203443
0.379248
0.0480565
0.702839
0.15018
0.305431
0.0334325
0.0232934
0.0232868
0.00471663
0.00471594
0.0145527
0.0145497
0.00401708
0.0040168
0.203412
0.831364
0.0480455
0.379205
0.150161
0.702816
0.0334264
0.305401
2.34881
3.07706
1.56996
2.03111
2.12088
2.7825
1.40435
1.80498
4.25849
3.30316
3.78413
2.91019
3.88049
2.99684
3.44042
2.63654
1.47408
0.589811
1.19795
0.415099
1.26842
0.474946
1.0254
0.32812
0.204917
0.204892
0.0903048
0.0902881
0.142883
0.142867
0.0576488
0.0576407
0.589782
1.47411
0.415073
1.19795
0.474931
1.26845
0.328107
1.02541
3.30329
4.25876
2.91025
3.78427
2.99695
3.88068
2.63659
3.44051
4.78667
3.7562
4.57476
3.57243
4.36896
3.41086
4.17319
3.24319
1.81465
0.827223
1.67366
0.72584
1.56646
0.672093
1.44346
0.588305
0.39167
0.391654
0.30879
0.308773
0.287701
0.287689
0.22305
0.223039
0.827224
1.81476
0.725836
1.67373
0.672099
1.56655
0.588309
1.44353
3.75648
4.78716
3.57264
4.57512
3.4111
4.36933
3.24337
4.17346
5.01207
3.9556
4.92409
3.87718
4.57668
3.59173
4.49568
3.52078
1.97435
0.947766
1.91081
0.899132
1.70429
0.770404
1.64971
0.730974
0.494285
0.49428
0.452507
0.452502
0.367445
0.36744
0.335115
0.335111
0.9478
1.97452
0.899164
1.91096
0.770434
1.70444
0.731005
1.64985
3.956
5.01272
3.87753
4.92463
3.59206
4.57719
3.52107
4.4961
5.09243
4.02895
5.06368
4.00236
4.65044
3.65761
4.62406
3.63379
2.03686
0.996925
2.0139
0.978728
1.75722
0.809548
1.73789
0.795171
0.536827
0.536829
0.521081
0.521084
0.399727
0.399727
0.3879
0.387902
0.996984
2.03709
0.978789
2.01411
0.8096
1.75742
0.795223
1.73808
4.02945
5.09324
4.00281
5.06436
3.65804
4.65109
3.63417
4.62459
5.10382
4.04138
5.10351
4.03996
4.66083
3.66817
4.66069
3.66733
2.05114
1.00945
2.04803
1.00626
1.76874
0.819012
1.76639
0.816719
0.547975
0.547991
0.54499
0.545002
0.407676
0.407701
0.405661
0.405674
1.00955
2.05135
1.00635
2.04832
0.81915
1.76907
0.816819
1.76668
4.04162
5.10449
4.04052
5.1044
3.66898
4.66179
3.66787
4.66138
5.08345
4.02596
5.0969
4.03641
4.64158
3.65333
4.65422
3.66327
2.04447
1.00672
2.04962
1.00921
1.76261
0.816492
1.76725
0.818668
0.546571
0.546613
0.548094
0.548122
0.406294
0.406361
0.407619
0.40766
1.00686
2.04448
1.00933
2.04977
0.816763
1.76311
0.818861
1.76766
4.02535
5.08299
4.03625
5.09696
3.65487
4.64325
3.6644
4.65547
5.04872
3.99833
5.06635
4.01237
4.60792
3.62699
4.62485
3.64009
2.02899
0.997653
2.03702
1.00244
1.74884
0.808905
1.75591
0.812854
0.540058
0.540114
0.543541
0.543598
0.401088
0.401201
0.403816
0.403916
0.997777
2.02868
1.0026
2.03686
0.809314
1.74955
0.813223
1.75656
3.99663
5.04671
4.01104
5.0649
3.62924
4.61065
3.64222
4.62723
5.01151
3.96913
5.02958
3.98319
4.57685
3.60308
4.59119
3.61415
2.01277
0.988184
2.02077
0.992893
1.73541
0.80132
1.74187
0.805043
0.533211
0.533245
0.536644
0.536694
0.395795
0.39588
0.398424
0.398534
0.988271
2.01263
0.992992
2.02044
0.801654
1.7361
0.805447
1.74264
3.96773
5.0098
3.98152
5.02756
3.60464
4.57901
3.61639
4.59408
4.97688
3.94227
4.99367
3.95521
4.54732
3.58077
4.56113
3.59095
1.99784
0.979334
2.00512
0.983725
1.72304
0.794276
1.72898
0.797744
0.526739
0.526778
0.529986
0.530026
0.390811
0.390863
0.393297
0.393368
0.979557
1.99862
0.983905
2.00549
0.79455
1.72391
0.798065
1.72981
3.94442
4.97911
3.9552
4.99321
3.5828
4.55011
3.59276
4.56338
4.94436
3.91774
4.95957
3.92915
4.5208
3.56072
4.53372
3.57055
1.98374
0.970857
1.99063
0.975088
1.7112
0.787394
1.71708
0.790841
0.520487
0.52053
0.523644
0.523692
0.385932
0.385988
0.388389
0.388446
0.971098
1.98459
0.975347
1.99152
0.787695
1.71206
0.791125
1.71786
3.92077
4.94836
3.93212
4.96316
3.56214
4.52283
3.57177
4.5355
4.91464
3.89567
4.92857
3.90593
4.49343
3.5403
4.50702
3.55028
1.97035
0.962563
1.977
0.966764
1.69984
0.780654
1.7055
0.784047
0.514299
0.514335
0.51745
0.517494
0.38108
0.381122
0.383533
0.383586
0.962734
1.97081
0.967005
1.97783
0.780843
1.70023
0.784308
1.70615
3.89672
4.91689
3.90875
4.93268
3.54053
4.49372
3.55074
4.50781
4.88431
3.87244
4.89957
3.88418
4.46494
3.51907
4.47887
3.52953
1.95632
0.954038
1.96347
0.958367
1.68771
0.773678
1.69378
0.777189
0.508046
0.508079
0.511228
0.511263
0.376169
0.376219
0.378652
0.378703
0.954131
1.95618
0.958468
1.96336
0.773904
1.68822
0.777398
1.69417
3.87116
4.88259
3.88306
4.89862
3.52009
4.4661
3.52994
4.47918
4.84902
3.84695
4.86446
3.85765
4.43377
3.49658
4.44797
3.50653
1.94185
0.945467
1.94865
0.949729
1.6755
0.766713
1.68137
0.770173
0.501778
0.501828
0.504958
0.50501
0.371238
0.371274
0.373724
0.373777
0.945721
1.9425
0.949967
1.94928
0.766927
1.67608
0.770436
1.68212
3.84743
4.85022
3.85868
4.86583
3.4966
4.4344
3.50816
4.45045
4.81835
3.82438
4.83416
3.83596
4.40365
3.47479
4.41862
3.48546
1.92821
0.936994
1.93515
0.941303
1.66354
0.75977
1.6695
0.763269
0.495473
0.495496
0.498688
0.498732
0.366271
0.366281
0.368786
0.368814
0.937189
1.92866
0.941552
1.9357
0.759933
1.66414
0.763467
1.67005
3.82434
4.81877
3.83588
4.83428
3.47607
4.40458
3.48546
4.41826
4.78517
3.80021
4.80172
3.81236
4.37321
3.45306
4.38808
3.46377
1.91388
0.928241
1.92122
0.93272
1.65133
0.752645
1.65753
0.756267
0.48902
0.489014
0.49232
0.492327
0.361182
0.361145
0.363769
0.363759
0.928323
1.91395
0.932847
1.92137
0.752615
1.65157
0.756347
1.65798
3.79788
4.78304
3.81088
4.80072
3.45523
4.37556
3.46579
4.39011
4.74576
3.77155
4.76553
3.78568
4.3376
3.42798
4.35492
3.43979
1.89804
0.918972
1.90602
0.923678
1.63796
0.745063
1.64462
0.748895
0.482348
0.482362
0.485752
0.485759
0.355899
0.355865
0.358581
0.358547
0.919134
1.89827
0.923801
1.90606
0.745062
1.63835
0.748878
1.64492
3.76945
4.74307
3.78267
4.76207
3.43128
4.34206
3.44281
4.35839
4.70679
3.74371
4.7257
3.75723
4.30241
3.40307
4.32027
3.41572
1.88221
0.909591
1.89008
0.914332
1.62416
0.737274
1.63108
0.7412
0.47555
0.475561
0.479011
0.479031
0.350484
0.35045
0.353226
0.353197
0.909756
1.88252
0.914531
1.89049
0.737304
1.62475
0.741234
1.63156
3.74259
4.70539
3.75597
4.7241
3.40655
4.30659
3.41834
4.3237
4.66557
3.71449
4.68603
3.72877
4.2649
3.37719
4.28269
3.38934
1.86606
0.900027
1.87421
0.904887
1.60989
0.729267
1.61691
0.733293
0.46863
0.468638
0.472153
0.472164
0.344953
0.344931
0.347749
0.347724
0.900146
1.86625
0.905026
1.87443
0.729357
1.61075
0.733368
1.61772
3.71421
4.66567
3.72813
4.6851
3.3811
4.26997
3.39341
4.28786
4.62293
3.68457
4.64383
3.69921
4.22674
3.35086
4.2455
3.36364
1.84899
0.890099
1.85757
0.895132
1.59541
0.721099
1.60264
0.725206
0.461582
0.461625
0.465162
0.465191
0.339348
0.339345
0.342175
0.342168
0.890352
1.84949
0.895326
1.85794
0.721239
1.59631
0.725343
1.60357
3.68333
4.62198
3.69841
4.64369
3.35485
4.2321
3.36782
4.25082
4.57987
3.65463
4.60044
3.66879
4.18871
3.32517
4.20701
3.33736
1.83188
0.880104
1.84036
0.885129
1.58111
0.712918
1.58816
0.717011
0.454485
0.45454
0.45808
0.458139
0.333712
0.333711
0.336551
0.336555
0.880361
1.83228
0.885423
1.84089
0.713009
1.58162
0.717144
1.58886
3.65281
4.57814
3.66768
4.59948
3.32732
4.19186
3.34043
4.21131
4.53582
3.62401
4.55737
3.63877
4.15066
3.29997
4.16865
3.31171
1.81473
0.87004
1.82327
0.875122
1.56661
0.704625
1.57382
0.708801
0.447309
0.447357
0.450958
0.451014
0.328001
0.327997
0.33089
0.330892
0.870259
1.81507
0.875364
1.8236
0.704677
1.56689
0.708884
1.57422
3.62186
4.53348
3.63668
4.5551
3.30026
4.15178
3.31332
4.17125
4.49038
3.59282
4.51257
3.6079
4.11064
3.27304
4.13032
3.28609
1.79711
0.859624
1.80595
0.86493
1.5514
0.695979
1.55903
0.700367
0.439866
0.439903
0.44368
0.443727
0.32207
0.322062
0.325092
0.325091
0.859828
1.79753
0.865162
1.80639
0.696018
1.55163
0.700424
1.55929
3.59081
4.48799
3.60586
4.51028
3.27297
4.11067
3.28592
4.13039
4.44237
3.55955
4.46629
3.57609
4.0667
3.24322
4.08876
3.2581
1.77809
0.8484
1.7878
0.854173
1.53485
0.686648
1.54328
0.691427
0.431885
0.431901
0.435998
0.43603
0.315714
0.315706
0.318972
0.31897
0.848536
1.77847
0.854363
1.7882
0.686689
1.53507
0.691482
1.54353
3.55947
4.44176
3.57448
4.4638
3.24369
4.06735
3.25829
4.08897
4.38928
3.52223
4.41595
3.54089
4.01783
3.20979
4.04226
3.22643
1.75701
0.836136
1.76776
0.842426
1.51656
0.67646
1.52585
0.681662
0.423237
0.423234
0.427683
0.427693
0.308837
0.308825
0.312354
0.312349
0.836202
1.75728
0.842535
1.76809
0.676491
1.51674
0.681713
1.52607
3.52275
4.39004
3.54123
4.41626
3.21019
4.01849
3.22686
4.04291
4.33227
3.48234
4.36057
3.50204
3.9659
3.17394
3.99159
3.1916
1.73445
0.823039
1.74585
0.829708
1.49701
0.665598
1.50685
0.671105
0.41402
0.414007
0.418729
0.418725
0.301526
0.30151
0.305242
0.305233
0.823072
1.73466
0.829768
1.7461
0.665618
1.49717
0.671144
1.50704
3.4828
4.33307
3.50255
4.36136
3.17431
3.96652
3.192
3.99219
4.27311
3.44085
4.30237
3.46129
3.91223
3.1368
3.93871
3.15503
1.71093
0.80937
1.72277
0.816296
1.47668
0.654289
1.48688
0.659995
0.404406
0.404388
0.409291
0.40928
0.293925
0.293907
0.297768
0.297756
0.809389
1.71112
0.816335
1.72298
0.654302
1.47683
0.660025
1.48705
3.44127
4.27386
3.46175
4.3031
3.13716
3.91283
3.15541
3.93928
4.21255
3.39826
4.24244
3.4192
3.85736
3.09879
3.88439
3.11742
1.68677
0.795331
1.6989
0.80242
1.45584
0.642697
1.46626
0.648528
0.394546
0.394526
0.399536
0.399522
0.286155
0.286135
0.29007
0.290055
0.795343
1.68694
0.80245
1.69909
0.642704
1.45598
0.648551
1.46643
3.39867
4.21328
3.41963
4.24313
3.09914
3.85794
3.11778
3.88494
4.15107
3.35493
4.18138
3.37621
3.80168
3.06017
3.82907
3.07908
1.66218
0.781066
1.6745
0.788253
1.43465
0.630935
1.44523
0.636838
0.384553
0.384531
0.389597
0.38958
0.278303
0.278281
0.282249
0.282232
0.781073
1.66234
0.788276
1.67469
0.630938
1.43478
0.636857
1.44538
3.35532
4.15179
3.37662
4.18206
3.0605
3.80226
3.07943
3.82962
4.08906
3.31111
4.11959
3.33261
3.74555
3.02115
3.77313
3.04024
1.63733
0.76668
1.64976
0.773915
1.41325
0.619089
1.42392
0.625024
0.374511
0.374486
0.379569
0.37955
0.270435
0.270412
0.274381
0.274363
0.766682
1.63748
0.773933
1.64994
0.619089
1.41337
0.62504
1.42407
3.31149
4.08976
3.33301
4.12026
3.02147
3.74611
3.04058
3.77367
4.0268
3.26697
4.05743
3.28861
3.68923
2.98188
3.71688
3.00108
1.61232
0.752249
1.62482
0.759498
1.39174
0.607224
1.40245
0.613162
0.364483
0.364457
0.369526
0.369505
0.262604
0.262579
0.266525
0.266506
0.752247
1.61247
0.759512
1.62499
0.607221
1.39186
0.613174
1.4026
3.26735
4.02749
3.28901
4.05809
2.9822
3.68978
3.00141
3.71741
3.96451
3.22263
3.99516
3.24438
3.63294
2.94248
3.66057
2.96175
1.58719
0.737805
1.59976
0.745061
1.37016
0.595375
1.38092
0.601305
0.354507
0.354479
0.359521
0.359499
0.254845
0.254819
0.258727
0.258706
0.7378
1.58734
0.745071
1.59993
0.59537
1.37028
0.601314
1.38106
3.223
3.96519
3.24477
3.9958
2.94278
3.63349
2.96207
3.66109
3.90204
3.17789
3.93283
3.1999
3.57656
2.90278
3.60429
2.92224
1.56178
0.723249
1.57454
0.730587
1.3484
0.583483
1.35928
0.589452
0.344545
0.344515
0.349564
0.34954
0.247146
0.247119
0.251004
0.250982
0.72324
1.56192
0.730593
1.5747
0.583475
1.34851
0.589458
1.35942
3.17824
3.9027
3.20027
3.93347
2.90308
3.5771
2.92256
3.6048
3.83841
3.13185
3.86999
3.15469
3.51925
2.86205
3.54763
2.88218
1.53532
0.708117
1.54875
0.715838
1.32586
0.571223
1.33726
0.577445
0.334332
0.3343
0.339533
0.339507
0.239352
0.239324
0.243293
0.24327
0.708105
1.53545
0.715841
1.54891
0.571212
1.32597
0.577448
1.33738
3.1322
3.83905
3.15505
3.87061
2.86234
3.51978
2.88249
3.54813
3.77039
3.08172
3.8048
3.10716
3.45819
2.81789
3.489
2.84022
1.50561
0.691011
1.52109
0.699988
1.30078
0.557564
1.31379
0.564686
0.322992
0.322959
0.328927
0.328899
0.230899
0.230871
0.235282
0.235258
0.690996
1.50573
0.699987
1.52124
0.55755
1.30089
0.564686
1.31392
3.08206
3.77102
3.10751
3.80541
2.81817
3.4587
2.84051
3.48949
3.68897
3.01935
3.73186
3.05257
3.38554
2.76333
3.42368
2.79227
1.46664
0.668295
1.48792
0.680754
1.2683
0.539742
1.28596
0.549467
0.308256
0.308223
0.316299
0.31627
0.220233
0.220203
0.226011
0.225986
0.668277
1.46676
0.68075
1.48806
0.539728
1.2684
0.549465
1.28607
3.01967
3.68958
3.05291
3.73245
2.76361
3.38604
2.79255
3.42416
3.5688
2.91585
3.63589
2.97603
3.27933
2.67371
3.33846
2.72571
1.40075
0.631123
1.43909
0.652411
1.2138
0.51074
1.24549
0.527358
0.285473
0.285437
0.298276
0.298246
0.203907
0.203876
0.213084
0.213059
0.631102
1.40087
0.652404
1.43923
0.510723
1.2139
0.527354
1.2456
2.91616
3.5694
2.97636
3.63646
2.67397
3.27982
2.72599
3.33893
3.3449
2.62884
3.4771
2.81749
3.08137
2.42011
3.19856
2.588
1.25397
0.563032
1.34316
0.601935
1.0896
0.45621
1.16568
0.487639
0.24961
0.249557
0.269215
0.269178
0.177561
0.177517
0.192085
0.192054
0.562977
1.25405
0.601916
1.34328
0.456166
1.08967
0.487626
1.16579
2.62912
3.34553
2.8178
3.47768
2.42034
3.0819
2.58827
3.19903
0.743011
0.664312
0.0826177
0.0990104
0.723
0.645799
0.0809732
0.0958034
0.0829094
0.00779823
0.0089345
0.00532978
0.0786588
0.00751245
0.0087938
0.00534047
0.00361735
0.0036173
0.00583338
0.00583336
0.00362407
0.00362404
0.00585368
0.00585367
0.00779666
0.0828895
0.00532974
0.0089338
0.00751124
0.0786422
0.00534043
0.00879322
0.664228
0.742931
0.0989973
0.0826069
0.645723
0.722923
0.0957922
0.080963
3.31117
2.5341
2.1971
1.69452
3.23005
2.46869
2.14275
1.65189
0.942601
0.252076
0.436897
0.0608801
0.903075
0.234539
0.416641
0.0561613
0.0329877
0.0329764
0.00550912
0.00550783
0.0293046
0.0292969
0.00521444
0.00521355
0.252033
0.942558
0.0608631
0.436839
0.234507
0.903044
0.0561486
0.416594
2.53409
3.31123
1.69444
2.19701
2.46869
3.23009
1.65181
2.14265
4.58857
3.57664
4.07236
3.1448
4.4684
3.47619
3.96939
3.06002
1.66822
0.70543
1.35477
0.498706
1.59643
0.662058
1.29775
0.467965
0.274175
0.274145
0.126524
0.126499
0.247594
0.247571
0.112796
0.112779
0.705397
1.66826
0.498672
1.35477
0.662039
1.59647
0.467946
1.29777
3.57682
4.58893
3.14489
4.07255
3.47636
4.46869
3.06011
3.96954
5.17145
4.08175
4.9363
3.87564
5.02811
3.95956
4.80289
3.76287
2.06152
0.992911
1.89747
0.869079
1.96809
0.929063
1.81359
0.814496
0.512163
0.51215
0.406392
0.406375
0.464773
0.464764
0.36841
0.368398
0.992927
2.06167
0.869082
1.89758
0.929086
1.96824
0.814509
1.81371
4.08211
5.17207
3.87593
4.93676
3.95989
5.02864
3.76313
4.80327
5.42491
4.30872
5.3254
4.21888
5.26923
4.17456
5.1748
4.08969
2.25094
1.14341
2.17494
1.08212
2.14486
1.0669
2.07419
1.01099
0.645234
0.645239
0.590595
0.590597
0.585016
0.585021
0.535828
0.535831
1.14348
2.25118
1.08218
2.17516
1.06696
2.1451
1.01105
2.0744
4.30923
5.42575
4.21933
5.32609
4.17503
5.26993
4.0901
5.17538
5.51752
4.3945
5.48406
4.36308
5.35622
4.25477
5.3249
4.2255
2.32752
1.20703
2.29903
1.18315
2.21529
1.12423
2.18921
1.10282
0.702478
0.70249
0.680962
0.680977
0.635897
0.63591
0.616881
0.616896
1.20712
2.32782
1.18325
2.29933
1.12433
2.21558
1.10292
2.18949
4.39511
5.51849
4.36365
5.48491
4.25534
5.35707
4.22603
5.32562
5.53233
4.41072
5.53112
4.4082
5.36936
4.26926
5.36852
4.26717
2.34667
1.22466
2.34197
1.21976
2.23225
1.13957
2.22823
1.13543
0.718774
0.718784
0.714089
0.714107
0.649887
0.649902
0.645958
0.645979
1.22476
2.34702
1.21988
2.34231
1.13966
2.23243
1.13555
2.22856
4.41144
5.53343
4.40884
5.53206
4.26913
5.36975
4.26776
5.3695
5.51035
4.3942
5.52505
4.40557
5.34847
4.25357
5.36222
4.26423
2.33986
1.22222
2.34541
1.22484
2.22552
1.13694
2.23084
1.13951
0.717738
0.717745
0.719377
0.71939
0.648625
0.648647
0.650219
0.650241
1.22233
2.34036
1.22495
2.34582
1.13701
2.22529
1.13961
2.23087
4.39531
5.51192
4.40644
5.52625
4.25109
5.34578
4.26318
5.36149
5.47061
4.36274
5.49058
4.37848
5.31108
4.22372
5.33007
4.23884
2.32182
1.21135
2.33123
1.2172
2.20858
1.12679
2.21738
1.13218
0.709677
0.709652
0.714114
0.714114
0.64118
0.641188
0.645201