/*--------------------------------*- C++ -*----------------------------------*\
  =========                 |
  \\      /  F ield         | OpenFOAM: The Open Source CFD Toolbox
   \\    /   O peration     | Website:  https://openfoam.org
    \\  /    A nd           | Version:  9
     \\/     M anipulation  |
\*---------------------------------------------------------------------------*/
FoamFile
{
    format      ascii;
    class       volScalarField;
    location    "0.9";
    object      p;
}
// * * * * * * * * * * * * * * * * * * * * * * * * * * * * * * * * * * * * * //

dimensions      [0 2 -2 0 0 0 0];

internalField   nonuniform List<scalar> 
36360
(
20.1142
20.091
20.1028
20.0981
20.1008
20.0997
20.1017
20.0952
20.1008
20.1013
20.1012
20.1011
20.0999
20.1002
20.0991
20.0992
20.1011
20.1011
20.1011
20.1011
20.1002
20.1002
20.0992
20.0992
20.1013
20.1008
20.1011
20.1012
20.1002
20.0999
20.0992
20.0991
20.091
20.1142
20.0981
20.1028
20.0997
20.1008
20.0952
20.1017
20.1377
20.0846
20.1299
20.0848
20.0905
20.1131
20.0957
20.1061
20.1
20.1017
20.1001
20.1014
20.1006
20.1008
20.1005
20.1008
20.1017
20.1017
20.1012
20.1012
20.1013
20.1013
20.101
20.101
20.1017
20.1
20.1014
20.1001
20.1008
20.1006
20.1008
20.1005
20.0846
20.1377
20.0848
20.1299
20.1131
20.0905
20.1061
20.0957
20.1318
20.0938
20.1366
20.0884
20.0731
20.1339
20.0828
20.1231
20.101
20.1018
20.1003
20.1019
20.1027
20.1008
20.1013
20.1007
20.1023
20.1023
20.1021
20.1021
20.1015
20.1015
20.1014
20.1014
20.1018
20.101
20.1019
20.1003
20.1008
20.1027
20.1007
20.1013
20.0938
20.1318
20.0884
20.1366
20.1339
20.0731
20.1231
20.0828
20.1206
20.104
20.1262
20.0992
20.0552
20.1518
20.0636
20.1437
20.1044
20.102
20.1024
20.1018
20.1073
20.1013
20.1048
20.101
20.1024
20.1024
20.1024
20.1024
20.1018
20.1018
20.1016
20.1016
20.102
20.1044
20.1018
20.1024
20.1013
20.1073
20.101
20.1048
20.104
20.1206
20.0992
20.1262
20.1518
20.0552
20.1437
20.0636
20.1109
20.1113
20.1154
20.108
20.0419
20.1631
20.048
20.1582
20.109
20.1029
20.1067
20.1023
20.1125
20.1024
20.1099
20.1018
20.1024
20.1024
20.1024
20.1024
20.1022
20.1022
20.1019
20.1019
20.1029
20.109
20.1023
20.1067
20.1024
20.1125
20.1018
20.1099
20.1113
20.1109
20.1081
20.1154
20.1631
20.0419
20.1582
20.048
20.1035
20.116
20.1069
20.1139
20.033
20.1696
20.037
20.1668
20.1133
20.1043
20.1113
20.1036
20.1171
20.1039
20.1149
20.1032
20.1029
20.1029
20.1026
20.1026
20.1027
20.1027
20.1024
20.1024
20.1043
20.1133
20.1036
20.1113
20.1039
20.1171
20.1032
20.1149
20.116
20.1035
20.1139
20.1069
20.1696
20.033
20.1668
20.037
20.0983
20.1189
20.1006
20.1176
20.0271
20.1731
20.0297
20.1716
20.1168
20.106
20.1152
20.1052
20.1207
20.1056
20.119
20.1048
20.1036
20.1036
20.1032
20.1032
20.1035
20.1035
20.1031
20.1031
20.106
20.1168
20.1052
20.1152
20.1056
20.1207
20.1048
20.119
20.1189
20.0983
20.1176
20.1007
20.1731
20.0271
20.1716
20.0297
20.0947
20.1206
20.0963
20.1198
20.0235
20.1749
20.0251
20.1742
20.1196
20.1078
20.1183
20.1069
20.1235
20.1073
20.1222
20.1064
20.1045
20.1045
20.104
20.104
20.1045
20.1045
20.104
20.104
20.1078
20.1196
20.1069
20.1183
20.1073
20.1236
20.1065
20.1222
20.1206
20.0947
20.1199
20.0963
20.1749
20.0235
20.1742
20.0251
20.0923
20.1216
20.0934
20.1212
20.0213
20.1758
20.0223
20.1755
20.1218
20.1094
20.1208
20.1086
20.1257
20.1089
20.1247
20.1081
20.1056
20.1056
20.1051
20.1051
20.1055
20.1055
20.105
20.105
20.1094
20.1218
20.1086
20.1208
20.1089
20.1257
20.1081
20.1247
20.1217
20.0923
20.1212
20.0934
20.1758
20.0213
20.1755
20.0223
20.0908
20.1224
20.0915
20.122
20.02
20.1763
20.0206
20.1761
20.1235
20.111
20.1227
20.1102
20.1274
20.1104
20.1266
20.1097
20.1068
20.1068
20.1062
20.1062
20.1067
20.1067
20.1061
20.1061
20.111
20.1235
20.1102
20.1227
20.1105
20.1274
20.1097
20.1266
20.1224
20.0908
20.1221
20.0915
20.1763
20.0199
20.1761
20.0206
20.09
20.1229
20.0903
20.1227
20.0194
20.1766
20.0196
20.1764
20.1248
20.1124
20.1242
20.1117
20.1287
20.1119
20.1281
20.1112
20.108
20.108
20.1074
20.1074
20.1079
20.1079
20.1073
20.1073
20.1124
20.1248
20.1117
20.1242
20.1119
20.1287
20.1112
20.1281
20.1229
20.09
20.1226
20.0904
20.1766
20.0193
20.1765
20.0196
20.0895
20.1234
20.0897
20.1231
20.0192
20.1768
20.0193
20.1767
20.126
20.1137
20.1254
20.1131
20.1298
20.1132
20.1293
20.1125
20.1092
20.1092
20.1086
20.1086
20.1091
20.1091
20.1085
20.1085
20.1137
20.126
20.1131
20.1254
20.1132
20.1298
20.1125
20.1293
20.1234
20.0895
20.1231
20.0897
20.1768
20.0191
20.1768
20.0191
20.0895
20.1238
20.0895
20.1236
20.0194
20.177
20.0193
20.1769
20.1269
20.115
20.1265
20.1144
20.1308
20.1144
20.1303
20.1138
20.1105
20.1105
20.1099
20.1099
20.1103
20.1103
20.1097
20.1097
20.115
20.127
20.1144
20.1265
20.1144
20.1308
20.1138
20.1303
20.1239
20.0894
20.1236
20.0894
20.1771
20.0192
20.177
20.0191
20.0895
20.1243
20.0895
20.124
20.0196
20.1773
20.0195
20.1772
20.1279
20.1162
20.1274
20.1156
20.1317
20.1156
20.1312
20.115
20.1117
20.1117
20.1111
20.1111
20.1115
20.1115
20.1109
20.1109
20.1162
20.1279
20.1156
20.1275
20.1156
20.1317
20.115
20.1312
20.1243
20.0895
20.1241
20.0894
20.1774
20.0196
20.1772
20.0194
20.0897
20.125
20.0896
20.1247
20.0199
20.1777
20.0198
20.1775
20.1288
20.1173
20.1284
20.1167
20.1325
20.1167
20.1321
20.1161
20.1129
20.1129
20.1123
20.1123
20.1127
20.1127
20.1121
20.1121
20.1173
20.1288
20.1167
20.1283
20.1167
20.1325
20.1162
20.1321
20.1249
20.0897
20.1246
20.0896
20.1776
20.0201
20.1775
20.0199
20.0901
20.1255
20.0899
20.1252
20.0206
20.178
20.0202
20.1778
20.1297
20.1184
20.1292
20.1179
20.1333
20.1178
20.1329
20.1172
20.1141
20.1141
20.1135
20.1135
20.1138
20.1138
20.1132
20.1132
20.1184
20.1297
20.1179
20.1292
20.1178
20.1333
20.1173
20.1329
20.1256
20.0901
20.1252
20.0899
20.1781
20.0205
20.1778
20.0203
20.0907
20.1262
20.0904
20.1259
20.0212
20.1784
20.0209
20.1782
20.1305
20.1195
20.1301
20.119
20.1341
20.1188
20.1337
20.1183
20.1152
20.1152
20.1147
20.1147
20.115
20.115
20.1144
20.1144
20.1195
20.1306
20.119
20.1301
20.1189
20.1341
20.1183
20.1337
20.1263
20.0906
20.1259
20.0903
20.1784
20.0213
20.1782
20.0209
20.0913
20.1269
20.091
20.1265
20.0221
20.1788
20.0217
20.1786
20.1314
20.1206
20.131
20.12
20.1349
20.1199
20.1345
20.1194
20.1164
20.1164
20.1158
20.1158
20.1161
20.1161
20.1155
20.1156
20.1206
20.1315
20.1201
20.131
20.1199
20.1349
20.1194
20.1345
20.127
20.0912
20.1266
20.0909
20.1789
20.0221
20.1786
20.0217
20.092
20.1278
20.0916
20.1273
20.0231
20.1793
20.0225
20.1791
20.1323
20.1217
20.1319
20.1211
20.1357
20.1209
20.1353
20.1204
20.1176
20.1176
20.117
20.117
20.1173
20.1173
20.1167
20.1167
20.1217
20.1323
20.1211
20.1319
20.1209
20.1357
20.1204
20.1353
20.1278
20.092
20.1274
20.0916
20.1793
20.0231
20.1791
20.0226
20.0927
20.1287
20.0923
20.1282
20.0241
20.1798
20.0236
20.1796
20.1333
20.1228
20.1328
20.1222
20.1365
20.122
20.1361
20.1215
20.1188
20.1188
20.1182
20.1182
20.1184
20.1184
20.1178
20.1178
20.1228
20.1332
20.1222
20.1328
20.122
20.1365
20.1215
20.1361
20.1287
20.0928
20.1282
20.0923
20.1799
20.0241
20.1796
20.0235
20.0937
20.1295
20.0932
20.1292
20.0253
20.1804
20.0247
20.1801
20.1342
20.1239
20.1337
20.1233
20.1373
20.123
20.1369
20.1225
20.12
20.12
20.1194
20.1194
20.1196
20.1196
20.119
20.119
20.1239
20.1342
20.1233
20.1338
20.123
20.1373
20.1225
20.1369
20.1296
20.0936
20.1291
20.0932
20.1805
20.0252
20.1802
20.0247
20.0946
20.1306
20.0941
20.1301
20.0264
20.1811
20.0258
20.1808
20.1352
20.125
20.1347
20.1244
20.1382
20.1241
20.1378
20.1236
20.1212
20.1212
20.1206
20.1206
20.1207
20.1207
20.1202
20.1202
20.125
20.1351
20.1244
20.1347
20.1241
20.1382
20.1236
20.1378
20.1306
20.0946
20.13
20.0941
20.1811
20.0264
20.1807
20.0258
20.0957
20.1316
20.0951
20.1311
20.0277
20.1817
20.027
20.1814
20.1362
20.1261
20.1357
20.1256
20.1391
20.1252
20.1386
20.1246
20.1224
20.1224
20.1218
20.1218
20.1219
20.1219
20.1213
20.1213
20.1261
20.1362
20.1256
20.1356
20.1252
20.1391
20.1246
20.1386
20.1316
20.0957
20.1311
20.0951
20.1817
20.0277
20.1814
20.027
20.0968
20.1327
20.0962
20.1321
20.029
20.1824
20.0284
20.1821
20.1372
20.1273
20.1367
20.1267
20.14
20.1263
20.1395
20.1257
20.1236
20.1236
20.123
20.123
20.1231
20.1231
20.1225
20.1225
20.1273
20.1372
20.1267
20.1367
20.1263
20.14
20.1257
20.1395
20.1326
20.0968
20.1321
20.0962
20.1824
20.0291
20.1821
20.0284
20.0979
20.1338
20.0973
20.1332
20.0305
20.1831
20.0298
20.1827
20.1383
20.1285
20.1377
20.1279
20.1409
20.1274
20.1405
20.1269
20.1249
20.1249
20.1243
20.1243
20.1244
20.1244
20.1237
20.1238
20.1285
20.1383
20.1279
20.1377
20.1274
20.1409
20.1268
20.1405
20.1338
20.0979
20.1333
20.0973
20.1831
20.0305
20.1828
20.0298
20.0992
20.135
20.0985
20.1344
20.032
20.1838
20.0313
20.1834
20.1393
20.1297
20.1388
20.1291
20.1418
20.1285
20.1414
20.128
20.1262
20.1262
20.1255
20.1256
20.1256
20.1256
20.125
20.125
20.1297
20.1393
20.1291
20.1388
20.1286
20.1419
20.128
20.1414
20.135
20.0992
20.1344
20.0985
20.1838
20.032
20.1835
20.0312
20.1004
20.1362
20.0998
20.1356
20.0336
20.1845
20.0328
20.1842
20.1404
20.1309
20.1399
20.1303
20.1427
20.1297
20.1423
20.1292
20.1275
20.1275
20.1268
20.1268
20.1269
20.1268
20.1262
20.1263
20.1309
20.1404
20.1303
20.1399
20.1298
20.1428
20.1291
20.1423
20.1362
20.1004
20.1356
20.0998
20.1846
20.0336
20.1842
20.0328
20.1017
20.1375
20.101
20.1368
20.0352
20.1853
20.0344
20.1849
20.1415
20.1321
20.1409
20.1315
20.1437
20.1308
20.1433
20.1303
20.1288
20.1288
20.1281
20.1282
20.1282
20.1281
20.1275
20.1276
20.1321
20.1415
20.1315
20.1409
20.1309
20.1437
20.1302
20.1432
20.1375
20.1017
20.1368
20.101
20.1853
20.0352
20.1849
20.0344
20.103
20.1387
20.1023
20.1381
20.037
20.1861
20.0361
20.1857
20.1425
20.1333
20.142
20.1327
20.1446
20.132
20.1442
20.1315
20.1301
20.1301
20.1295
20.1295
20.1295
20.1294
20.1288
20.1288
20.1333
20.1426
20.1327
20.142
20.1321
20.1447
20.1314
20.1442
20.1387
20.103
20.1381
20.1023
20.1861
20.0369
20.1857
20.0361
20.1044
20.14
20.1037
20.1394
20.0387
20.1868
20.0378
20.1865
20.1436
20.1345
20.1431
20.1339
20.1455
20.1332
20.1451
20.1326
20.1315
20.1315
20.1308
20.1308
20.1308
20.1307
20.1301
20.1301
20.1345
20.1436
20.1339
20.1431
20.1332
20.1456
20.1326
20.1451
20.14
20.1044
20.1394
20.1037
20.1869
20.0387
20.1865
20.0378
20.1058
20.1412
20.1051
20.1406
20.0406
20.1875
20.0397
20.1872
20.1446
20.1357
20.1441
20.1351
20.1464
20.1343
20.146
20.1338
20.1328
20.1328
20.1321
20.1321
20.1321
20.132
20.1314
20.1314
20.1357
20.1446
20.1351
20.1441
20.1344
20.1465
20.1337
20.146
20.1412
20.1058
20.1406
20.1051
20.1876
20.0406
20.1872
20.0396
20.1073
20.1424
20.1066
20.1418
20.0425
20.1882
20.0416
20.1879
20.1456
20.1369
20.1451
20.1363
20.1473
20.1355
20.1469
20.1349
20.1341
20.1341
20.1334
20.1334
20.1333
20.1333
20.1327
20.1327
20.1369
20.1456
20.1363
20.1451
20.1355
20.1473
20.1349
20.1469
20.1424
20.1073
20.1418
20.1066
20.1882
20.0425
20.1879
20.0415
20.1089
20.1435
20.1081
20.143
20.0446
20.1887
20.0435
20.1885
20.1466
20.1381
20.1461
20.1375
20.1481
20.1366
20.1477
20.1361
20.1354
20.1354
20.1348
20.1348
20.1346
20.1346
20.134
20.134
20.1381
20.1466
20.1375
20.1461
20.1366
20.1481
20.1361
20.1477
20.1435
20.1089
20.143
20.1081
20.1888
20.0446
20.1885
20.0435
20.1106
20.1445
20.1098
20.144
20.0467
20.1892
20.0456
20.189
20.1475
20.1393
20.147
20.1387
20.1488
20.1378
20.1485
20.1372
20.1367
20.1367
20.136
20.136
20.1359
20.1359
20.1352
20.1353
20.1393
20.1475
20.1387
20.147
20.1378
20.1489
20.1372
20.1485
20.1445
20.1106
20.144
20.1098
20.1892
20.0467
20.189
20.0456
20.1124
20.1454
20.1115
20.145
20.049
20.1895
20.0479
20.1894
20.1483
20.1404
20.1479
20.1398
20.1496
20.1389
20.1492
20.1383
20.1379
20.1379
20.1373
20.1373
20.1371
20.1371
20.1365
20.1365
20.1404
20.1483
20.1399
20.1479
20.1389
20.1496
20.1383
20.1492
20.1455
20.1124
20.145
20.1115
20.1895
20.049
20.1894
20.0479
20.1141
20.1464
20.1133
20.1459
20.0516
20.1896
20.0503
20.1896
20.1491
20.1415
20.1487
20.141
20.1502
20.14
20.1499
20.1394
20.1392
20.1392
20.1385
20.1386
20.1383
20.1383
20.1377
20.1377
20.1415
20.1491
20.141
20.1487
20.14
20.1502
20.1394
20.1499
20.1464
20.1141
20.1459
20.1133
20.1896
20.0515
20.1896
20.0503
20.1157
20.1474
20.115
20.1469
20.0544
20.1895
20.0529
20.1896
20.1499
20.1426
20.1495
20.1421
20.1508
20.1411
20.1505
20.1405
20.1403
20.1403
20.1397
20.1397
20.1395
20.1395
20.1389
20.1389
20.1426
20.1499
20.1421
20.1495
20.1411
20.1508
20.1405
20.1506
20.1474
20.1157
20.1469
20.115
20.1895
20.0544
20.1896
20.0529
20.1162
20.1493
20.1161
20.1481
20.0576
20.1889
20.0559
20.1892
20.1505
20.1436
20.1502
20.1431
20.1513
20.1421
20.1511
20.1416
20.1415
20.1415
20.1409
20.1409
20.1407
20.1407
20.1401
20.1401
20.1436
20.1505
20.1431
20.1502
20.1421
20.1514
20.1416
20.1511
20.1493
20.1162
20.1481
20.1161
20.1889
20.0576
20.1892
20.0559
20.1159
20.1512
20.1157
20.151
20.0615
20.1874
20.0595
20.1883
20.1512
20.1446
20.1509
20.1441
20.1517
20.1432
20.1516
20.1426
20.1425
20.1425
20.142
20.142
20.1417
20.1417
20.1412
20.1412
20.1446
20.1512
20.1441
20.1509
20.1432
20.1518
20.1426
20.1516
20.1513
20.1159
20.151
20.1157
20.1874
20.0615
20.1883
20.0594
20.1255
20.0799
20.1044
20.095
20.1222
20.0814
20.1037
20.0942
20.0997
20.1012
20.1008
20.1007
20.0996
20.1006
20.0999
20.0999
20.1011
20.1011
20.1007
20.1007
20.1004
20.1004
20.0998
20.0998
20.1012
20.0997
20.1007
20.1008
20.1006
20.0996
20.0999
20.0999
20.0799
20.1255
20.095
20.1044
20.0814
20.1222
20.0942
20.1037
20.1666
20.0652
20.152
20.0677
20.1616
20.0652
20.147
20.0689
20.0929
20.1013
20.0966
20.1013
20.095
20.1014
20.0979
20.1013
20.1018
20.1018
20.1014
20.1014
20.1017
20.1017
20.1012
20.1012
20.1013
20.0929
20.1013
20.0966
20.1014
20.095
20.1013
20.0979
20.0652
20.1666
20.0677
20.152
20.0652
20.1616
20.0689
20.147
20.1678
20.0742
20.1694
20.0689
20.1633
20.0723
20.1649
20.0677
20.0901
20.1002
20.0906
20.1009
20.0926
20.1009
20.093
20.1012
20.1025
20.1025
20.1022
20.1022
20.1022
20.1022
20.102
20.102
20.1002
20.0901
20.1009
20.0906
20.1009
20.0926
20.1012
20.093
20.0742
20.1678
20.0689
20.1694
20.0723
20.1633
20.0677
20.1649
20.1612
20.0831
20.1647
20.0791
20.1562
20.0807
20.16
20.0768
20.0924
20.0999
20.0909
20.0999
20.0946
20.101
20.0932
20.1008
20.1025
20.1025
20.1025
20.1025
20.1023
20.1023
20.1023
20.1023
20.0999
20.0924
20.0999
20.0909
20.101
20.0946
20.1008
20.0932
20.0831
20.1612
20.0791
20.1647
20.0807
20.1562
20.0768
20.16
20.1543
20.0888
20.1576
20.0863
20.1488
20.0865
20.1524
20.0839
20.096
20.1009
20.0941
20.1002
20.0987
20.1019
20.0966
20.1013
20.1026
20.1026
20.1025
20.1025
20.1025
20.1025
20.1024
20.1024
20.1009
20.096
20.1002
20.0941
20.1019
20.0987
20.1013
20.0966
20.0888
20.1543
20.0863
20.1576
20.0865
20.1488
20.0839
20.1524
20.1486
20.0922
20.1513
20.0907
20.1426
20.0902
20.1455
20.0885
20.0998
20.1025
20.0979
20.1017
20.1028
20.1035
20.1008
20.1027
20.103
20.103
20.1027
20.1027
20.103
20.103
20.1027
20.1027
20.1025
20.0998
20.1017
20.0979
20.1035
20.1028
20.1027
20.1008
20.0922
20.1486
20.0907
20.1513
20.0902
20.1427
20.0885
20.1456
20.1442
20.0942
20.1462
20.0933
20.1379
20.0925
20.1401
20.0915
20.1032
20.1043
20.1016
20.1034
20.1064
20.1052
20.1047
20.1043
20.1037
20.1037
20.1033
20.1033
20.1037
20.1037
20.1033
20.1033
20.1043
20.1032
20.1034
20.1016
20.1052
20.1064
20.1043
20.1047
20.0942
20.1442
20.0933
20.1462
20.0925
20.1379
20.0915
20.1401
20.141
20.0955
20.1424
20.095
20.1346
20.0939
20.1361
20.0933
20.106
20.1061
20.1047
20.1052
20.1092
20.107
20.1079
20.1061
20.1048
20.1048
20.1042
20.1042
20.1047
20.1047
20.1042
20.1042
20.1061
20.106
20.1053
20.1047
20.107
20.1092
20.1061
20.1079
20.0955
20.141
20.095
20.1425
20.094
20.1346
20.0933
20.1361
20.1389
20.0963
20.1398
20.096
20.1323
20.0949
20.1334
20.0944
20.1082
20.1079
20.1072
20.107
20.1113
20.1087
20.1103
20.1079
20.1059
20.1059
20.1053
20.1053
20.1059
20.1059
20.1053
20.1053
20.1079
20.1082
20.107
20.1072
20.1087
20.1114
20.1079
20.1103
20.0963
20.1389
20.096
20.1398
20.0949
20.1323
20.0945
20.1333
20.1375
20.0969
20.1381
20.0966
20.1308
20.0956
20.1315
20.0952
20.1098
20.1094
20.109
20.1087
20.1132
20.1102
20.1123
20.1095
20.1072
20.1072
20.1066
20.1066
20.1071
20.1071
20.1065
20.1065
20.1094
20.1098
20.1087
20.1091
20.1102
20.1132
20.1095
20.1123
20.0969
20.1375
20.0967
20.1381
20.0956
20.1308
20.0953
20.1315
20.1367
20.0974
20.137
20.0971
20.1299
20.0961
20.1303
20.0958
20.111
20.1109
20.1104
20.1102
20.1147
20.1117
20.114
20.111
20.1085
20.1085
20.1078
20.1078
20.1083
20.1083
20.1077
20.1077
20.1109
20.1111
20.1102
20.1105
20.1117
20.1147
20.111
20.114
20.0975
20.1365
20.0972
20.137
20.0961
20.13
20.0959
20.1304
20.1361
20.0979
20.1363
20.0977
20.1294
20.0966
20.1297
20.0964
20.1121
20.1123
20.1116
20.1116
20.1159
20.113
20.1153
20.1124
20.1097
20.1097
20.1091
20.1091
20.1096
20.1096
20.1089
20.1089
20.1123
20.1121
20.1116
20.1116
20.1131
20.116
20.1124
20.1154
20.098
20.1362
20.0977
20.1363
20.0966
20.1295
20.0964
20.1297
20.136
20.0985
20.136
20.0982
20.1293
20.0972
20.1293
20.0969
20.1132
20.1136
20.1127
20.1129
20.117
20.1143
20.1165
20.1137
20.111
20.111
20.1104
20.1104
20.1108
20.1108
20.1102
20.1102
20.1136
20.1131
20.1129
20.1127
20.1143
20.117
20.1137
20.1165
20.0984
20.1361
20.0982
20.1361
20.0971
20.1293
20.0969
20.1294
20.136
20.0991
20.1359
20.0989
20.1292
20.0978
20.1292
20.0975
20.1141
20.1148
20.1137
20.1142
20.1181
20.1155
20.1176
20.1149
20.1123
20.1123
20.1116
20.1116
20.112
20.112
20.1114
20.1114
20.1148
20.1141
20.1142
20.1136
20.1155
20.1181
20.1149
20.1176
20.0991
20.136
20.0988
20.136
20.0978
20.1293
20.0975
20.1292
20.1362
20.0998
20.1361
20.0994
20.1294
20.0984
20.1293
20.0981
20.1151
20.116
20.1146
20.1154
20.1191
20.1167
20.1186
20.1161
20.1135
20.1135
20.1129
20.1129
20.1133
20.1133
20.1127
20.1127
20.116
20.1151
20.1154
20.1146
20.1167
20.119
20.1161
20.1186
20.0998
20.1361
20.0994
20.1361
20.0984
20.1296
20.0981
20.1294
20.1365
20.1005
20.1364
20.1001
20.1298
20.099
20.1296
20.0987
20.116
20.1171
20.1155
20.1165
20.12
20.1178
20.1195
20.1173
20.1147
20.1147
20.1141
20.1141
20.1145
20.1145
20.1139
20.1139
20.1171
20.116
20.1165
20.1155
20.1178
20.12
20.1173
20.1195
20.1005
20.1366
20.1001
20.1363
20.099
20.1299
20.0987
20.1298
20.137
20.1013
20.1368
20.1009
20.1303
20.0998
20.1301
20.0994
20.117
20.1182
20.1165
20.1177
20.121
20.119
20.1205
20.1184
20.1159
20.1159
20.1153
20.1153
20.1157
20.1157
20.1151
20.1151
20.1182
20.117
20.1177
20.1165
20.119
20.121
20.1184
20.1205
20.1012
20.1371
20.1009
20.1368
20.0999
20.1302
20.0995
20.13
20.1376
20.1021
20.1373
20.1017
20.1308
20.1006
20.1306
20.1002
20.1179
20.1194
20.1174
20.1188
20.122
20.1201
20.1215
20.1195
20.1171
20.1171
20.1165
20.1165
20.1168
20.1168
20.1163
20.1163
20.1194
20.1179
20.1188
20.1174
20.1201
20.122
20.1195
20.1215
20.102
20.1377
20.1016
20.1374
20.1006
20.1308
20.1003
20.1305
20.1382
20.1031
20.1379
20.1026
20.1316
20.1014
20.1312
20.101
20.1189
20.1205
20.1184
20.1199
20.123
20.1212
20.1225
20.1206
20.1183
20.1183
20.1177
20.1177
20.118
20.118
20.1174
20.1174
20.1205
20.1189
20.1199
20.1184
20.1212
20.123
20.1206
20.1225
20.103
20.1383
20.1025
20.138
20.1015
20.1314
20.101
20.1311
20.139
20.1039
20.1386
20.1035
20.1322
20.1024
20.1319
20.1019
20.1199
20.1216
20.1194
20.121
20.124
20.1223
20.1235
20.1217
20.1195
20.1195
20.1189
20.1189
20.1192
20.1192
20.1186
20.1186
20.1216
20.1199
20.1211
20.1194
20.1223
20.124
20.1217
20.1235
20.104
20.139
20.1035
20.1386
20.1024
20.1322
20.1019
20.1318
20.1398
20.1051
20.1394
20.1045
20.1331
20.1033
20.1326
20.1028
20.121
20.1228
20.1205
20.1222
20.1251
20.1234
20.1246
20.1229
20.1207
20.1207
20.1201
20.1201
20.1204
20.1204
20.1198
20.1198
20.1228
20.121
20.1222
20.1205
20.1235
20.1251
20.1229
20.1246
20.1051
20.1398
20.1045
20.1394
20.1033
20.133
20.1029
20.1326
20.1407
20.1063
20.1402
20.1057
20.134
20.1042
20.1335
20.1037
20.1221
20.124
20.1216
20.1234
20.1262
20.1246
20.1256
20.124
20.1219
20.1219
20.1213
20.1213
20.1217
20.1217
20.1211
20.1211
20.124
20.1221
20.1234
20.1216
20.1246
20.1262
20.124
20.1257
20.1062
20.1408
20.1057
20.1403
20.1043
20.1339
20.1038
20.1334
20.1417
20.1075
20.1412
20.1069
20.1349
20.1053
20.1344
20.1048
20.1233
20.1252
20.1227
20.1246
20.1273
20.1258
20.1267
20.1252
20.1232
20.1232
20.1226
20.1226
20.1229
20.1229
20.1223
20.1223
20.1252
20.1232
20.1246
20.1227
20.1258
20.1273
20.1252
20.1268
20.1074
20.1418
20.1068
20.1413
20.1053
20.1349
20.1048
20.1344
20.1427
20.1088
20.1422
20.1081
20.1359
20.1064
20.1354
20.1059
20.1244
20.1264
20.1238
20.1258
20.1285
20.127
20.1279
20.1264
20.1245
20.1245
20.1238
20.1238
20.1242
20.1242
20.1235
20.1235
20.1264
20.1244
20.1258
20.1238
20.127
20.1285
20.1264
20.1279
20.1087
20.1427
20.108
20.1423
20.1063
20.136
20.1057
20.1355
20.1438
20.1103
20.1432
20.1095
20.137
20.1074
20.1364
20.1069
20.1256
20.1276
20.125
20.127
20.1297
20.1282
20.1291
20.1276
20.1258
20.1258
20.1251
20.1251
20.1255
20.1255
20.1248
20.1248
20.1276
20.1256
20.127
20.125
20.1282
20.1297
20.1276
20.1291
20.1102
20.1439
20.1094
20.1433
20.1074
20.137
20.1069
20.1365
20.1449
20.1118
20.1443
20.111
20.1381
20.1084
20.1376
20.1079
20.1269
20.1289
20.1262
20.1282
20.1309
20.1295
20.1303
20.1288
20.1271
20.1271
20.1264
20.1264
20.1268
20.1268
20.1261
20.1261
20.1289
20.1269
20.1282
20.1262
20.1295
20.1309
20.1288
20.1303
20.1118
20.1449
20.1111
20.1443
20.1085
20.1381
20.1079
20.1376
20.1461
20.1129
20.1455
20.1124
20.1393
20.1099
20.1387
20.1091
20.1281
20.1302
20.1275
20.1295
20.1321
20.1307
20.1315
20.1301
20.1284
20.1284
20.1277
20.1277
20.1281
20.1281
20.1274
20.1274
20.1302
20.1282
20.1295
20.1275
20.1307
20.1321
20.1301
20.1315
20.113
20.1461
20.1124
20.1455
20.1099
20.1393
20.1091
20.1387
20.1473
20.1141
20.1467
20.1135
20.1404
20.1115
20.1398
20.1107
20.1294
20.1315
20.1288
20.1308
20.1333
20.132
20.1327
20.1313
20.1298
20.1298
20.1291
20.1291
20.1294
20.1294
20.1288
20.1288
20.1315
20.1295
20.1308
20.1288
20.132
20.1333
20.1313
20.1327
20.1141
20.1473
20.1135
20.1467
20.1115
20.1404
20.1107
20.1399
20.1485
20.1153
20.1479
20.1147
20.1416
20.113
20.141
20.1122
20.1307
20.1328
20.1301
20.1321
20.1345
20.1332
20.1339
20.1326
20.1311
20.1311
20.1304
20.1304
20.1308
20.1308
20.1301
20.1301
20.1328
20.1308
20.1321
20.1301
20.1332
20.1346
20.1326
20.134
20.1153
20.1485
20.1147
20.1479
20.113
20.1417
20.1122
20.141
20.1498
20.1165
20.1491
20.1159
20.1429
20.1144
20.1423
20.1137
20.132
20.1341
20.1314
20.1334
20.1358
20.1345
20.1352
20.1339
20.1325
20.1325
20.1318
20.1318
20.1321
20.1321
20.1314
20.1314
20.1341
20.132
20.1334
20.1314
20.1345
20.1358
20.1339
20.1352
20.1165
20.1498
20.1159
20.1491
20.1145
20.1429
20.1137
20.1423
20.1511
20.1178
20.1504
20.1171
20.1442
20.1159
20.1436
20.1152
20.1333
20.1353
20.1326
20.1347
20.1369
20.1357
20.1363
20.1351
20.1338
20.1338
20.1332
20.1332
20.1335
20.1335
20.1328
20.1328
20.1353
20.1333
20.1347
20.1327
20.1357
20.1369
20.1351
20.1364
20.1178
20.1511
20.1171
20.1504
20.1159
20.1442
20.1152
20.1436
20.1524
20.119
20.1517
20.1184
20.1456
20.1172
20.1449
20.1165
20.1345
20.1366
20.1339
20.136
20.1381
20.137
20.1375
20.1364
20.1352
20.1352
20.1345
20.1345
20.1348
20.1348
20.1341
20.1341
20.1366
20.1345
20.136
20.1339
20.137
20.1381
20.1364
20.1375
20.119
20.1524
20.1184
20.1518
20.1172
20.1456
20.1165
20.1449
20.1538
20.1201
20.1531
20.1196
20.1471
20.1184
20.1463
20.1178
20.1356
20.1379
20.1351
20.1372
20.1392
20.1382
20.1386
20.1376
20.1365
20.1365
20.1358
20.1358
20.1361
20.1361
20.1354
20.1354
20.1379
20.1357
20.1372
20.1351
20.1382
20.1392
20.1376
20.1386
20.1202
20.1539
20.1196
20.1531
20.1184
20.1471
20.1178
20.1463
20.1553
20.1212
20.1546
20.1207
20.1486
20.1195
20.1478
20.119
20.1368
20.1391
20.1362
20.1385
20.1402
20.1394
20.1397
20.1388
20.1378
20.1378
20.1372
20.1372
20.1374
20.1374
20.1367
20.1368
20.1391
20.1368
20.1385
20.1362
20.1394
20.1402
20.1388
20.1397
20.1212
20.1553
20.1207
20.1546
20.1196
20.1486
20.119
20.1478
20.1567
20.1222
20.156
20.1217
20.1501
20.1205
20.1493
20.1201
20.1379
20.1403
20.1373
20.1397
20.1412
20.1405
20.1407
20.14
20.1391
20.1391
20.1384
20.1384
20.1386
20.1387
20.138
20.138
20.1403
20.1379
20.1397
20.1373
20.1406
20.1412
20.14
20.1407
20.1222
20.1567
20.1217
20.156
20.1206
20.1501
20.1201
20.1493
20.1578
20.1233
20.1573
20.1228
20.1515
20.1215
20.1508
20.121
20.1389
20.1414
20.1384
20.1409
20.1422
20.1417
20.1417
20.1411
20.1403
20.1403
20.1397
20.1397
20.1399
20.1399
20.1393
20.1393
20.1414
20.139
20.1409
20.1384
20.1417
20.1422
20.1411
20.1417
20.1233
20.1579
20.1228
20.1573
20.1215
20.1515
20.121
20.1508
20.1582
20.1249
20.1582
20.124
20.1523
20.1229
20.152
20.1221
20.1401
20.1425
20.1395
20.142
20.1431
20.1428
20.1427
20.1422
20.1415
20.1415
20.1409
20.1409
20.141
20.141
20.1405
20.1405
20.1425
20.1401
20.142
20.1395
20.1428
20.1431
20.1422
20.1427
20.1249
20.1583
20.124
20.1582
20.1229
20.1523
20.1221
20.152
20.1565
20.1285
20.1578
20.1263
20.1514
20.1258
20.1522
20.124
20.1412
20.1436
20.1406
20.1431
20.144
20.1438
20.1436
20.1433
20.1426
20.1426
20.1421
20.1421
20.1422
20.1422
20.1416
20.1416
20.1436
20.1412
20.1431
20.1406
20.1438
20.1441
20.1433
20.1436
20.1286
20.1565
20.1263
20.1578
20.1258
20.1514
20.124
20.1522
20.1564
20.1295
20.1547
20.1313
20.1518
20.1267
20.1501
20.1281
20.1422
20.1448
20.1419
20.1442
20.1448
20.1449
20.1446
20.1443
20.1437
20.1438
20.1432
20.1432
20.1432
20.1432
20.1427
20.1427
20.1448
20.1423
20.1442
20.1419
20.1449
20.1449
20.1444
20.1446
20.1295
20.1564
20.1314
20.1547
20.1267
20.1518
20.1281
20.1501
20.128
20.078
20.1052
20.0936
20.1273
20.0782
20.1049
20.0935
20.0991
20.1009
20.1006
20.1005
20.0991
20.1007
20.1003
20.1001
20.1009
20.1009
20.1004
20.1004
20.1006
20.1006
20.1001
20.1001
20.1009
20.0991
20.1005
20.1006
20.1007
20.0991
20.1001
20.1003
20.078
20.128
20.0936
20.1052
20.0782
20.1273
20.0935
20.1049
20.1693
20.0661
20.1553
20.0664
20.1689
20.065
20.1545
20.0663
20.0899
20.1006
20.0949
20.101
20.0909
20.1009
20.0956
20.1011
20.1018
20.1018
20.1013
20.1013
20.1018
20.1018
20.1012
20.1012
20.1006
20.0899
20.101
20.0949
20.1009
20.0909
20.1011
20.0956
20.0661
20.1693
20.0664
20.1553
20.065
20.1689
20.0663
20.1545
20.1682
20.08
20.1709
20.0725
20.169
20.0769
20.1711
20.0703
20.0861
20.0983
20.087
20.0994
20.0872
20.0991
20.0881
20.1
20.1024
20.1024
20.1022
20.1022
20.1024
20.1024
20.1022
20.1022
20.0983
20.0861
20.0994
20.087
20.0991
20.0872
20.1
20.0881
20.08
20.1682
20.0725
20.1709
20.0769
20.169
20.0703
20.1711
20.1604
20.0912
20.1644
20.0863
20.1618
20.087
20.1655
20.0826
20.0882
20.0974
20.0867
20.0976
20.0892
20.0984
20.0877
20.0985
20.1022
20.1022
20.1023
20.1023
20.1024
20.1024
20.1025
20.1025
20.0974
20.0882
20.0976
20.0867
20.0984
20.0892
20.0985
20.0877
20.0912
20.1604
20.0863
20.1644
20.0871
20.1618
20.0826
20.1655
20.1532
20.0975
20.1566
20.0948
20.1549
20.093
20.1582
20.0904
20.0921
20.0983
20.0901
20.0977
20.0931
20.0993
20.0911
20.0987
20.1021
20.1021
20.1021
20.1021
20.1024
20.1024
20.1024
20.1024
20.0983
20.0921
20.0977
20.0901
20.0993
20.0931
20.0987
20.0911
20.0975
20.1533
20.0948
20.1567
20.093
20.1549
20.0904
20.1582
20.1476
20.1009
20.1502
20.0994
20.1493
20.0963
20.1519
20.0949
20.0959
20.0999
20.094
20.099
20.0969
20.101
20.095
20.1001
20.1024
20.1024
20.1022
20.1022
20.1028
20.1028
20.1025
20.1025
20.0999
20.0959
20.099
20.094
20.101
20.0969
20.1001
20.095
20.1009
20.1476
20.0994
20.1502
20.0963
20.1493
20.0949
20.1519
20.1434
20.1028
20.1453
20.102
20.145
20.0983
20.147
20.0974
20.0991
20.1018
20.0976
20.1009
20.1001
20.1029
20.0986
20.1019
20.1032
20.1032
20.1027
20.1027
20.1035
20.1035
20.1031
20.1031
20.1018
20.0991
20.1009
20.0976
20.1029
20.1001
20.1019
20.0986
20.1028
20.1434
20.102
20.1453
20.0983
20.145
20.0974
20.147
20.1404
20.1039
20.1417
20.1034
20.1419
20.0995
20.1433
20.099
20.1017
20.1037
20.1005
20.1028
20.1027
20.1048
20.1015
20.1038
20.1042
20.1042
20.1037
20.1037
20.1045
20.1046
20.104
20.104
20.1037
20.1017
20.1028
20.1005
20.1048
20.1027
20.1038
20.1015
20.1039
20.1404
20.1034
20.1418
20.0994
20.142
20.0989
20.1434
20.1384
20.1045
20.1393
20.1042
20.1399
20.1002
20.1408
20.0999
20.1037
20.1055
20.1028
20.1046
20.1046
20.1065
20.1037
20.1057
20.1055
20.1055
20.1048
20.1048
20.1057
20.1057
20.1051
20.1051
20.1055
20.1037
20.1046
20.1028
20.1066
20.1046
20.1057
20.1037
20.1045
20.1385
20.1042
20.1393
20.1001
20.1399
20.0998
20.1409
20.1371
20.105
20.1377
20.1048
20.1386
20.1006
20.1392
20.1004
20.1053
20.1071
20.1046
20.1063
20.1061
20.1082
20.1054
20.1074
20.1068
20.1068
20.1061
20.1061
20.107
20.107
20.1064
20.1064
20.1071
20.1053
20.1063
20.1046
20.1082
20.1061
20.1074
20.1054
20.1049
20.1372
20.1047
20.1378
20.1006
20.1387
20.1004
20.1392
20.1364
20.1053
20.1367
20.1052
20.1378
20.1011
20.1382
20.1008
20.1066
20.1086
20.106
20.1079
20.1076
20.1097
20.1069
20.1089
20.1081
20.1081
20.1074
20.1074
20.1083
20.1083
20.1077
20.1077
20.1086
20.1066
20.1079
20.106
20.1097
20.1076
20.1089
20.1069
20.1053
20.1365
20.1051
20.1368
20.1011
20.1378
20.1009
20.1381
20.136
20.1058
20.1361
20.1056
20.1373
20.1016
20.1375
20.1014
20.1077
20.1099
20.1072
20.1093
20.1088
20.111
20.1083
20.1104
20.1094
20.1094
20.1087
20.1087
20.1096
20.1096
20.109
20.109
20.1099
20.1077
20.1093
20.1072
20.111
20.1088
20.1104
20.1082
20.1058
20.136
20.1055
20.1362
20.1015
20.1374
20.1013
20.1376
20.136
20.1061
20.1359
20.106
20.1372
20.102
20.1373
20.1018
20.1088
20.1112
20.1083
20.1106
20.1099
20.1123
20.1094
20.1117
20.1107
20.1107
20.1101
20.1101
20.1109
20.1109
20.1103
20.1103
20.1112
20.1088
20.1106
20.1082
20.1123
20.1099
20.1117
20.1094
20.1061
20.136
20.106
20.136
20.102
20.1373
20.1018
20.1373
20.136
20.1067
20.136
20.1064
20.1373
20.1026
20.1372
20.1023
20.1097
20.1124
20.1092
20.1118
20.1109
20.1136
20.1104
20.113
20.112
20.112
20.1113
20.1113
20.1122
20.1122
20.1115
20.1115
20.1124
20.1097
20.1118
20.1092
20.1136
20.1109
20.113
20.1104
20.1067
20.136
20.1064
20.136
20.1026
20.1373
20.1023
20.1373
20.1362
20.1073
20.1361
20.1071
20.1375
20.1032
20.1374
20.1029
20.1107
20.1136
20.1102
20.113
20.1119
20.1147
20.1114
20.1141
20.1132
20.1132
20.1126
20.1126
20.1134
20.1134
20.1128
20.1128
20.1136
20.1107
20.113
20.1102
20.1147
20.1119
20.1141
20.1114
20.1072
20.1363