/*--------------------------------*- C++ -*----------------------------------*\
  =========                 |
  \\      /  F ield         | OpenFOAM: The Open Source CFD Toolbox
   \\    /   O peration     | Website:  https://openfoam.org
    \\  /    A nd           | Version:  9
     \\/     M anipulation  |
\*---------------------------------------------------------------------------*/
FoamFile
{
    format      ascii;
    class       volScalarField;
    location    "2.65";
    object      k;
}
// * * * * * * * * * * * * * * * * * * * * * * * * * * * * * * * * * * * * * //

dimensions      [0 2 -2 0 0 0 0];

internalField   nonuniform List<scalar> 
36360
(
0.0887945
0.0730276
0.0411375
0.0363809
0.0214574
0.017094
0.00660929
0.00612775
0.0307658
0.0091928
0.0089763
0.00354845
0.00636085
0.00291162
0.00339916
0.00289594
0.00311314
0.00311522
0.00262603
0.00262621
0.00213436
0.00213445
0.0029735
0.00297349
0.00920264
0.0307817
0.00355041
0.00898297
0.00291306
0.00636476
0.00289583
0.00339995
0.0730438
0.0888077
0.0363963
0.0411489
0.0171011
0.0214624
0.00613029
0.00661058
0.145669
0.121999
0.121863
0.100915
0.0481361
0.0374281
0.0369338
0.02838
0.0680992
0.0365343
0.0509998
0.0224784
0.0205798
0.00929508
0.013369
0.00476616
0.0206188
0.0206283
0.00810078
0.00810877
0.00408394
0.00408662
0.00227306
0.00227401
0.0365513
0.0681164
0.0224952
0.0510162
0.00930246
0.0205882
0.00477027
0.0133765
0.122015
0.145683
0.100931
0.121876
0.037436
0.0481421
0.0283874
0.0369395
0.178457
0.152316
0.163855
0.138654
0.0629135
0.0503678
0.0564245
0.0445643
0.0949897
0.0619664
0.0825814
0.0499322
0.0318946
0.0199458
0.0266907
0.0148024
0.0467844
0.0467911
0.0344391
0.0344466
0.0140756
0.0140793
0.0085794
0.00858331
0.0619826
0.095008
0.0499489
0.0825993
0.0199544
0.0319044
0.0148106
0.0266998
0.152332
0.178471
0.13867
0.163869
0.0503766
0.0629202
0.0445727
0.0564309
0.200541
0.173334
0.190479
0.163716
0.07256
0.0592433
0.0681818
0.0551862
0.114688
0.0814023
0.105612
0.0724322
0.0401212
0.0282736
0.0363336
0.0244403
0.0664773
0.0664834
0.0574254
0.0574318
0.0228588
0.0228624
0.0188565
0.0188601
0.0814177
0.114706
0.072448
0.10563
0.0282826
0.0401318
0.0244491
0.0363438
0.17335
0.200553
0.163733
0.190492
0.0592524
0.0725666
0.0551953
0.0681885
0.215968
0.188167
0.208947
0.181407
0.0792392
0.0654935
0.0762036
0.0626453
0.128803
0.0953306
0.122361
0.0889808
0.0459986
0.03416
0.0433177
0.0314861
0.0804232
0.0804289
0.07408
0.074086
0.028876
0.0288796
0.0261594
0.026163
0.0953451
0.12882
0.0889958
0.122378
0.0341692
0.0460094
0.0314952
0.0433285
0.18818
0.215978
0.181422
0.208958
0.0655024
0.0792448
0.0626544
0.0762097
0.226483
0.198312
0.221749
0.193741
0.0837679
0.0697589
0.0817315
0.0678385
0.138496
0.104862
0.13413
0.100573
0.0500166
0.0381317
0.0482084
0.0363496
0.0899078
0.0899132
0.085644
0.0856497
0.0328694
0.0328731
0.0310827
0.0310863
0.104876
0.138511
0.100587
0.134146
0.0381411
0.0500274
0.036359
0.0482193
0.198323
0.226489
0.193754
0.221757
0.0697671
0.0837722
0.067847
0.0817363
0.23329
0.204892
0.230275
0.201975
0.0866806
0.0725095
0.0853923
0.0712919
0.144792
0.111043
0.142003
0.108306
0.0526073
0.0406698
0.0514613
0.0395492
0.0960407
0.0960459
0.0933265
0.0933319
0.0354006
0.0354043
0.0342846
0.0342883
0.111056
0.144806
0.10832
0.142018
0.0406794
0.0526182
0.0395587
0.0514721
0.204901
0.233293
0.201985
0.230279
0.0725171
0.0866836
0.0712998
0.0853958
0.237394
0.20887
0.235616
0.207145
0.0884214
0.0741547
0.087668
0.0734423
0.148605
0.114788
0.146953
0.113164
0.0541595
0.0421815
0.0534875
0.0415277
0.0997545
0.0997596
0.0981443
0.0981495
0.0369012
0.036905
0.0362525
0.0362563
0.1148
0.148618
0.113177
0.146966
0.0421912
0.0541704
0.0415374
0.0534983
0.208877
0.237395
0.207153
0.235617
0.0741619
0.0884236
0.0734496
0.0876705
0.239622
0.211042
0.238689
0.21013
0.089358
0.0750398
0.0889656
0.0746686
0.150701
0.116855
0.149822
0.115986
0.0550005
0.0429984
0.0546474
0.0426553
0.10181
0.101815
0.100945
0.10095
0.0377103
0.0377142
0.0373701
0.037374
0.116868
0.150713
0.115999
0.149834
0.0430083
0.0550115
0.0426651
0.0546583
0.211048
0.239621
0.210136
0.238689
0.0750468
0.0893597
0.0746756
0.0889674
0.240623
0.212038
0.240236
0.211648
0.0897771
0.0754361
0.0896132
0.0752805
0.151681
0.117839
0.151295
0.117449
0.0553865
0.0433754
0.0552337
0.0432253
0.102798
0.102803
0.102404
0.102409
0.0380844
0.0380884
0.0379348
0.0379388
0.117852
0.151693
0.117462
0.151307
0.0433855
0.0553976
0.0432353
0.0552448
0.212043
0.240622
0.211653
0.240234
0.0754431
0.0897786
0.0752875
0.0896146
0.240853
0.212299
0.240806
0.212232
0.089873
0.0755294
0.0898524
0.0755079
0.151973
0.118161
0.151888
0.118059
0.0554948
0.0434882
0.0554638
0.0434533
0.103136
0.103141
0.103024
0.103029
0.0381997
0.0382038
0.0381626
0.0381666
0.118173
0.151985
0.118072
0.1519
0.0434984
0.0555061
0.0434635
0.0554751
0.212305
0.240852
0.212238
0.240804
0.0755365
0.0898745
0.0755149
0.0898538
0.240649
0.212151
0.240792
0.212261
0.0897997
0.0754635
0.0898539
0.0755117
0.151881
0.11811
0.151959
0.118165
0.0554558
0.0434601
0.0554876
0.0434845
0.103106
0.103112
0.103149
0.103154
0.0381764
0.0381805
0.0381975
0.0382016
0.118123
0.151893
0.118177
0.151972
0.0434704
0.0554673
0.0434948
0.055499
0.212157
0.240648
0.212267
0.24079
0.0754708
0.0898013
0.0755189
0.0898553
0.240159
0.211739
0.240422
0.211961
0.0896087
0.0752888
0.0897091
0.0753801
0.151548
0.117831
0.151731
0.117988
0.0553191
0.0433411
0.0553915
0.0434041
0.102856
0.102861
0.102998
0.103004
0.0380654
0.0380695
0.038124
0.0381281
0.117844
0.15156
0.118001
0.151744
0.0433515
0.0553307
0.0434145
0.055403
0.211746
0.240158
0.211967
0.240421
0.0752962
0.0896105
0.0753874
0.0897107
0.239504
0.211181
0.239841
0.211468
0.0893548
0.0750568
0.0894836
0.0751738
0.151083
0.117428
0.151325
0.117639
0.0551321
0.043176
0.0552271
0.0432595
0.102484
0.102489
0.102679
0.102684
0.0379098
0.0379139
0.037988
0.0379921
0.117441
0.151096
0.117652
0.151338
0.0431864
0.0551438
0.04327
0.0552388
0.211187
0.239504
0.211474
0.23984
0.0750644
0.0893568
0.0751813
0.0894854
0.238733
0.210521
0.239124
0.210855
0.0890563
0.0747846
0.0892059
0.0749204
0.150531
0.116944
0.150813
0.117192
0.0549104
0.0429793
0.0550214
0.0430774
0.102034
0.102039
0.102264
0.10227
0.0377241
0.0377282
0.0378162
0.0378203
0.116958
0.150544
0.117205
0.150826
0.0429899
0.0549221
0.0430879
0.0550332
0.210528
0.238734
0.210861
0.239124
0.0747924
0.0890585
0.074928
0.0892079
0.23787
0.209784
0.238305
0.210154
0.0887221
0.0744806
0.088889
0.0746317
0.149912
0.116399
0.150226
0.116676
0.0546614
0.042758
0.0547856
0.042868
0.101525
0.10153
0.101783
0.101789
0.0375148
0.037519
0.0376183
0.0376224
0.116413
0.149925
0.11669
0.150239
0.0427686
0.0546733
0.0428785
0.0547974
0.209791
0.23787
0.210162
0.238306
0.0744885
0.0887246
0.0746396
0.0888912
0.236921
0.208976
0.237399
0.209382
0.0883554
0.0741474
0.0885385
0.074313
0.149234
0.115801
0.149577
0.116104
0.0543878
0.0425145
0.0545242
0.0426355
0.100964
0.10097
0.101248
0.101254
0.0372843
0.0372885
0.0373983
0.0374025
0.115814
0.149248
0.116117
0.149591
0.0425252
0.0543998
0.0426461
0.0545362
0.208984
0.236922
0.20939
0.237399
0.0741554
0.088358
0.074321
0.0885409
0.235888
0.208101
0.236408
0.208541
0.0879563
0.0737852
0.0881557
0.0739655
0.148499
0.11515
0.14887
0.115479
0.0540902
0.0422493
0.0542387
0.0423812
0.100354
0.10036
0.100663
0.100668
0.037033
0.0370372
0.0371575
0.0371616
0.115164
0.148513
0.115493
0.148885
0.0422599
0.0541022
0.0423918
0.0542507
0.208109
0.23589
0.208549
0.23641
0.0737934
0.0879592
0.0739737
0.0881583
0.23477
0.207156
0.235333
0.20763
0.0875243
0.0733935
0.0877402
0.0735886
0.147705
0.114447
0.148106
0.114803
0.053768
0.0419619
0.0539289
0.042105
0.099694
0.0996997
0.100028
0.100034
0.0367606
0.0367648
0.0368957
0.0368999
0.114461
0.14772
0.114817
0.148121
0.0419726
0.0537802
0.0421157
0.053941
0.207165
0.234773
0.207639
0.235335
0.0734019
0.0875275
0.073597
0.0877432
0.233566
0.206141
0.234172
0.206651
0.0870588
0.0729717
0.0872917
0.0731821
0.146852
0.11369
0.147283
0.114073
0.0534207
0.0416518
0.0535943
0.0418064
0.0989829
0.0989887
0.0993425
0.0993483
0.0364664
0.0364706
0.0366126
0.0366168
0.113705
0.146867
0.114087
0.147298
0.0416625
0.053433
0.0418171
0.0536066
0.20615
0.233569
0.20666
0.234175
0.0729803
0.0870622
0.0731906
0.0872949
0.232273
0.205053
0.232924
0.2056
0.0865587
0.0725188
0.086809
0.0727449
0.145938
0.112879
0.1464
0.11329
0.0530476
0.0413183
0.0532343
0.0414847
0.0982196
0.0982254
0.0986055
0.0986113
0.0361498
0.036154
0.0363073
0.0363115
0.112894
0.145953
0.113304
0.146415
0.0413291
0.05306
0.0414955
0.0532466
0.205063
0.232277
0.20561
0.232927
0.0725276
0.0865625
0.0727537
0.0868125
0.230889
0.203892
0.231586
0.204476
0.0860236
0.072034
0.0862916
0.0722762
0.144962
0.112012
0.145455
0.11245
0.0526482
0.0409609
0.0528481
0.0411393
0.0974032
0.0974091
0.0978158
0.0978217
0.0358104
0.0358146
0.0359794
0.0359836
0.112027
0.144978
0.112465
0.145471
0.0409717
0.0526606
0.0411502
0.0528606
0.203903
0.230894
0.204486
0.23159
0.072043
0.0860277
0.0722851
0.0862954
0.229416
0.202657
0.230157
0.203278
0.0854535
0.0715172
0.085739
0.0717755
0.143924
0.111089
0.144448
0.111555
0.0522222
0.0405795
0.0524355
0.0407701
0.0965335
0.0965394
0.0969728
0.0969788
0.035448
0.0354522
0.0356286
0.0356328
0.111104
0.14394
0.11157
0.144464
0.0405904
0.0522348
0.0407809
0.052448
0.202669
0.229421
0.203289
0.230162
0.0715264
0.0854578
0.0717846
0.0857431
0.227853
0.20135
0.228639
0.202006
0.0848487
0.0709685
0.0851515
0.0712428
0.142823
0.11011
0.143379
0.110604
0.0517701
0.0401744
0.0519964
0.0403768
0.0956111
0.0956171
0.0960767
0.0960827
0.0350628
0.035067
0.0352548
0.035259
0.110125
0.14284
0.110619
0.143395
0.0401853
0.0517827
0.0403877
0.0520091
0.201361
0.22786
0.202018
0.228645
0.0709779
0.0848533
0.0712521
0.0851559
0.226205
0.199971
0.227033
0.200663
0.0842103
0.0703885
0.0845299
0.0706784
0.141663
0.109077
0.142248
0.109598
0.0512923
0.0397461
0.0515314
0.0399601
0.0946375
0.0946436
0.0951286
0.0951347
0.0346554
0.0346597
0.0348585
0.0348627
0.109093
0.14168
0.109614
0.142265
0.0397571
0.0513051
0.039971
0.0515442
0.199983
0.226212
0.200675
0.22704
0.0703981
0.0842152
0.0706879
0.0845345
0.224476
0.198525
0.225344
0.19925
0.0835403
0.0697794
0.0838755
0.0700835
0.140446
0.107993
0.141059
0.10854
0.0507904
0.0392958
0.0510414
0.0395207
0.0936151
0.0936212
0.0941303
0.0941365
0.0342269
0.0342311
0.0344405
0.0344447
0.108009
0.140463
0.108555
0.141077
0.0393068
0.0508033
0.0395317
0.0510543
0.198538
0.224483
0.199263
0.225351
0.0697892
0.0835455
0.0700932
0.0838805
0.22267
0.197016
0.223576
0.197773
0.0828411
0.0691459
0.0831907
0.069462
0.139175
0.106861
0.139815
0.107431
0.0502659
0.0388245
0.0505282
0.0390598
0.0925463
0.0925526
0.0930845
0.0930907
0.0337782
0.0337825
0.0340018
0.034006
0.106876
0.139193
0.107447
0.139833
0.0388356
0.0502789
0.0390708
0.0505411
0.19703
0.222678
0.197786
0.223583
0.0691559
0.0828466
0.0694719
0.083196
0.220794
0.195447
0.221734
0.196233
0.0821143
0.0684872
0.0824775
0.068816
0.137854
0.105682
0.138519
0.106275
0.0497199
0.0383335
0.0499929
0.0385786
0.0914337
0.09144
0.0919937
0.092
0.0333105
0.0333148
0.0335435
0.0335478
0.105698
0.137872
0.106291
0.138537
0.0383446
0.0497329
0.0385897
0.0500059
0.195461
0.220803
0.196247
0.221743
0.0684974
0.0821201
0.0688261
0.0824831
0.218852
0.193821
0.219825
0.194635
0.0813618
0.0678042
0.0817378
0.0681451
0.136482
0.104458
0.137172
0.105074
0.0491531
0.0378237
0.0494364
0.0380782
0.0902783
0.0902846
0.0908597
0.090866
0.0328249
0.0328292
0.0330669
0.0330712
0.104474
0.136501
0.10509
0.13719
0.0378348
0.0491662
0.0380893
0.0494495
0.193836
0.218862
0.19465
0.219834
0.0678146
0.0813678
0.0681554
0.0817436
0.216844
0.192137
0.21785
0.192981
0.0805839
0.0670975
0.0809728
0.0674504
0.13506
0.103188
0.135776
0.103828
0.0485657
0.0372949
0.0488596
0.0375591
0.0890783
0.0890847
0.0896826
0.089689
0.0323211
0.0323254
0.0325724
0.0325767
0.103204
0.135079
0.103844
0.135795
0.037306
0.0485788
0.0375702
0.0488727
0.192152
0.216855
0.192996
0.21786
0.067108
0.0805903
0.0674608
0.0809789
0.214765
0.190386
0.215809
0.191265
0.079778
0.0663646
0.0801816
0.0667313
0.133578
0.101863
0.134326
0.102531
0.0479549
0.0367448
0.0482611
0.0370202
0.0878256
0.0878321
0.0884578
0.0884643
0.0317969
0.0318012
0.032059
0.0320632
0.101879
0.133597
0.102548
0.134345
0.0367558
0.0479681
0.0370313
0.0482743
0.190401
0.214776
0.19128
0.215819
0.0663753
0.0797847
0.0667418
0.080188
0.212597
0.188549
0.213688
0.189474
0.0789366
0.0655975
0.0793594
0.0659829
0.132019
0.100464
0.132808
0.101173
0.0473139
0.0361669
0.0476365
0.0364574
0.0865024
0.0865089
0.087173
0.0871795
0.0312462
0.0312505
0.0315227
0.0315269
0.100481
0.132038
0.101189
0.132827
0.036178
0.0473271
0.0364685
0.0476497
0.188565
0.212608
0.18949
0.213699
0.0656083
0.0789434
0.0659936
0.079366
0.210305
0.186594
0.211463
0.187584
0.078045
0.064782
0.0784952
0.0651935
0.130349
0.0989609
0.131198
0.099727
0.04663
0.0355493
0.046976
0.0358617
0.0850768
0.0850834
0.0858036
0.0858101
0.030657
0.0306613
0.0309547
0.030959
0.0989776
0.130368
0.0997437
0.131218
0.0355603
0.0466431
0.0358727
0.0469892
0.186611
0.210317
0.1876
0.211475
0.0647929
0.0780522
0.0652043
0.0785022
0.207837
0.184469
0.209091
0.185551
0.0770801
0.063899
0.0775707
0.0643476
0.128518
0.0973036
0.129456
0.098154
0.0458831
0.0348722
0.0462638
0.0352174
0.0835
0.0835065
0.0843097
0.0843163
0.0300099
0.0300141
0.0303396
0.0303438
0.0973205
0.128538
0.0981708
0.129475
0.0348831
0.0458963
0.0352283
0.046277
0.184486
0.20785
0.185569
0.209104
0.06391
0.0770875
0.0643585
0.0775779
0.205116
0.182099
0.206508
0.183314
0.0760077
0.0629191
0.0765571
0.0634203
0.126458
0.0954238
0.12752
0.0963953
0.0450444
0.0341072
0.0454753
0.0345005
0.0817038
0.0817105
0.082633
0.0826396
0.0292766
0.0292807
0.0296535
0.0296577
0.0954409
0.126479
0.0964123
0.127541
0.0341181
0.0450576
0.0345114
0.0454885
0.182117
0.20513
0.183332
0.206521
0.0629302
0.0760154
0.0634313
0.0765645
0.202042
0.17939
0.203625
0.180789
0.0747823
0.0618065
0.0754146
0.0623789
0.124074
0.0932296
0.125312
0.0943717
0.0440754
0.0332165
0.044577
0.0336781
0.0795994
0.0796062
0.0806953
0.080702
0.0284201
0.0284243
0.0288639
0.028868
0.0932471
0.124095
0.094389
0.125333
0.0332274
0.0440886
0.033689
0.0445903
0.17941
0.202058
0.180808
0.203639
0.0618179
0.0747905
0.0623902
0.0754225
0.198509
0.1762
0.200332
0.177863
0.0733528
0.060519
0.0740932
0.061185
0.121212
0.0905855
0.122716
0.091974
0.0429192
0.0321491
0.0435237
0.0327066
0.0770721
0.0770791
0.0783955
0.0784024
0.0273966
0.0274008
0.0279296
0.0279338
0.0906037
0.121234
0.0919918
0.122738
0.0321601
0.0429327
0.0327176
0.0435371
0.176221
0.198526
0.177883
0.200349
0.0605309
0.0733617
0.0611967
0.0741016
0.194605
0.172096
0.19656
0.17432
0.0717276
0.058963
0.0725522
0.0597857
0.117463
0.0872515
0.119496
0.0890246
0.0414509
0.0308326
0.0422362
0.0315253
0.0739929
0.0740001
0.0756066
0.0756137
0.0261701
0.0261744
0.0268071
0.0268114
0.0872705
0.117486
0.0890432
0.119519
0.0308438
0.0414649
0.0315364
0.04225
0.172119
0.194626
0.174341
0.196578
0.0589757
0.0717376
0.059798
0.0725615
0.192709
0.163789
0.19303
0.169109
0.0700865
0.0560318
0.0709372
0.0578844
0.111447
0.0829212
0.114888
0.085213
0.0392776
0.0292126
0.040493
0.0300549
0.0703739
0.0703812
0.0722315
0.0722388
0.0247875
0.0247917
0.0254854
0.0254897
0.0829406
0.111472
0.0852323
0.114912
0.0292236
0.0392917
0.030066
0.0405071
0.163814
0.192734
0.169134
0.193052
0.0560454
0.0700985
0.0578976
0.0709481
0.134746
0.11108
0.0725469
0.0599209
0.117286
0.0963752
0.0600134
0.0498833
0.0556813
0.0224828
0.0203688
0.00579309
0.045464
0.0161207
0.0147158
0.00457271
0.00763207
0.00764223
0.00302103
0.00302241
0.00496776
0.00497387
0.00280183
0.00280237
0.0225084
0.0557056
0.00580034
0.0203919
0.01614
0.0454837
0.00457666
0.014734
0.111105
0.134768
0.0599466
0.0725679
0.096396
0.117304
0.0499045
0.0600303
0.213998
0.181285
0.179827
0.150367
0.187926
0.158268
0.157866
0.131322
0.113264
0.070245
0.0867619
0.0465678
0.094871
0.0556783
0.0723114
0.0361415
0.0486237
0.0486344
0.0247724
0.0247872
0.0359634
0.0359733
0.0163085
0.0163217
0.0702679
0.113288
0.0465927
0.0867865
0.0556987
0.0948924
0.0361624
0.0723323
0.181308
0.214019
0.150391
0.179848
0.158289
0.187944
0.131343
0.157883
0.26369
0.22776
0.241241
0.20657
0.230596
0.197929
0.211447
0.179949
0.155682
0.110836
0.136026
0.0917905
0.13055
0.0895994
0.114063
0.0736519
0.0894512
0.0894591
0.0703254
0.0703343
0.0703031
0.0703107
0.0541717
0.0541802
0.110856
0.155705
0.0918115
0.13605
0.0896178
0.130571
0.0736714
0.114085
0.227782
0.263709
0.206593
0.241262
0.197948
0.230613
0.179969
0.211465
0.298269
0.260887
0.282445
0.245667
0.259811
0.225805
0.246474
0.213025
0.18713
0.141654
0.172602
0.12739
0.15681
0.115366
0.144695
0.103454
0.120265
0.120272
0.106023
0.10603
0.0961998
0.0962064
0.0842547
0.0842617
0.14167
0.187149
0.127407
0.172622
0.115383
0.156829
0.103472
0.144715
0.260904
0.298283
0.245687
0.282461
0.225823
0.259826
0.213044
0.24649
0.322711
0.284554
0.311562
0.273739
0.280323
0.245591
0.270979
0.236563
0.209925
0.164068
0.199488
0.153804
0.175743
0.133994
0.167086
0.12548
0.142582
0.142587
0.132371
0.132377
0.114792
0.114798
0.106306
0.106312
0.164081
0.209939
0.153819
0.199504
0.134008
0.175759
0.125495
0.167104
0.284565
0.32272
0.273754
0.311574
0.245605
0.280332
0.236578
0.270991
0.339524
0.300923
0.331934
0.293526
0.294357
0.259198
0.288031
0.253059
0.225799
0.179684
0.21862
0.172622
0.188845
0.146872
0.18293
0.141061
0.158096
0.1581
0.151083
0.151088
0.127597
0.127602
0.121823
0.121828
0.179694
0.225808
0.172634
0.218632
0.146885
0.188858
0.141075
0.182945
0.300928
0.339526
0.293535
0.331939
0.259207
0.294362
0.25307
0.288038
0.350539
0.311689
0.345641
0.306898
0.303494
0.268086
0.299439
0.264138
0.236291
0.190014
0.231621
0.185416
0.197438
0.155315
0.193622
0.151566
0.168351
0.168354
0.163786
0.16379
0.135978
0.135982
0.132257
0.132262
0.190022
0.236296
0.185425
0.231629
0.155326
0.197449
0.151578
0.193634
0.31169
0.350535
0.306901
0.34564
0.268091
0.303495
0.264146
0.299441
0.357291
0.318318
0.354351
0.315428
0.309048
0.273509
0.306636
0.271151
0.242788
0.196425
0.239955
0.193628
0.202706
0.160498
0.200416
0.158244
0.174718
0.174721
0.171939
0.171942
0.141122
0.141126
0.138884
0.138888
0.19643
0.24279
0.193635
0.239959
0.160508
0.202714
0.158254
0.200425
0.318315
0.357283
0.315427
0.354345
0.273512
0.309045
0.271155
0.306634
0.361047
0.322036
0.359463
0.320464
0.312099
0.276511
0.310817
0.275246
0.246471
0.200079
0.244912
0.19853
0.20565
0.16341
0.204409
0.16218
0.178356
0.178359
0.176812
0.176814
0.144018
0.144022
0.142794
0.142798
0.200084
0.246472
0.198535
0.244913
0.163419
0.205658
0.162189
0.204417
0.322031
0.361037
0.320459
0.359453
0.276512
0.312094
0.275248
0.310812
0.362813
0.323822
0.362118
0.323112
0.313498
0.277919
0.312952
0.277364
0.248287
0.201909
0.24756
0.201172
0.207068
0.164834
0.206505
0.164265
0.18019
0.180193
0.179449
0.179451
0.145447
0.145451
0.144873
0.144877
0.201913
0.248286
0.201176
0.24756
0.164843
0.207075
0.164274
0.206512
0.323815
0.362802
0.323105
0.362106
0.27792
0.313492
0.277364
0.312946
0.363313
0.324384
0.363176
0.324212
0.313855
0.278326
0.313768
0.278211
0.248926
0.202594
0.248716
0.202359
0.207534
0.165338
0.207388
0.165171
0.180897
0.180899
0.180649
0.180652
0.145969
0.145973
0.145791
0.145795
0.202598
0.248926
0.202363
0.248716
0.165347
0.207541
0.16518
0.207395
0.324377
0.363301
0.324205
0.363163
0.278326
0.313849
0.278211
0.313761
0.36307
0.324231
0.363255
0.324366
0.31361
0.27816
0.313785
0.278291
0.248878
0.202609
0.248961
0.20266
0.207455
0.165312
0.20754
0.165369
0.180941
0.180943
0.180977
0.180979
0.145968
0.145972
0.146012
0.146016
0.202613
0.248878
0.202664
0.248961
0.165321
0.207462
0.165378
0.207547
0.324224
0.363059
0.324359
0.363242
0.27816
0.313604
0.278291
0.313779
0.362358
0.323632
0.362747
0.323964
0.31298
0.277631
0.313321
0.277919
0.248412
0.202225
0.248682
0.202455
0.207038
0.164967
0.207274
0.165167
0.180597
0.180599
0.180807
0.180809
0.145658
0.145662
0.14584
0.145844
0.202229
0.248412
0.202459
0.248682
0.164976
0.207046
0.165176
0.207281
0.323625
0.362347
0.323957
0.362735
0.277632
0.312975
0.27792
0.313315
0.361369
0.322775
0.361881
0.32322
0.312126
0.276897
0.312566
0.277276
0.247705
0.20161
0.248079
0.201938
0.206433
0.164441
0.206751
0.164719
0.180026
0.180028
0.180331
0.180333
0.145171
0.145175
0.145428
0.145433
0.201614
0.247705
0.201942
0.24808
0.164451
0.206441
0.164728
0.206759
0.32277
0.361359
0.323214
0.36187
0.276898
0.312122
0.277277
0.312561
0.360193
0.321749
0.360792
0.322272
0.311117
0.276024
0.311629
0.276467
0.246844
0.200851
0.247288
0.201244
0.205706
0.163803
0.206079
0.164132
0.179316
0.179318
0.179684
0.179686
0.144574
0.144579
0.144882
0.144886
0.200856
0.246845
0.201249
0.247289
0.163813
0.205714
0.164142
0.206087
0.321744
0.360184
0.322266
0.360781
0.276026
0.311113
0.276469
0.311624
0.358874
0.320598
0.359541
0.32118
0.309986
0.275048
0.310556
0.27554
0.245871
0.199989
0.246368
0.200431
0.204886
0.16308
0.205303
0.163449
0.178506
0.178509
0.178921
0.178924
0.143897
0.143902
0.144243
0.144247
0.199994
0.245873
0.200436
0.24637
0.16309
0.204895
0.163459
0.205312
0.320593
0.358866
0.321175
0.359531
0.27505
0.309983
0.275542
0.310552
0.357429
0.319337
0.358158
0.319973
0.308747
0.273979
0.309371
0.274517
0.244803
0.19904
0.245347
0.199524
0.203988
0.162285
0.204444
0.162689
0.177614
0.177617
0.178069
0.178072
0.143151
0.143156
0.143531
0.143535
0.199046
0.244806
0.19953
0.245349
0.162295
0.203997
0.162699
0.204453
0.319334
0.357422
0.319969
0.358149
0.273982
0.308745
0.274519
0.309367
0.355862
0.317973
0.356652
0.31866
0.307401
0.272821
0.308079
0.273404
0.243646
0.19801
0.244234
0.198534
0.203013
0.161422
0.203507
0.16186
0.176644
0.176647
0.177138
0.17714
0.142341
0.142345
0.142752
0.142757
0.198016
0.243649
0.19854
0.244237
0.161432
0.203023
0.161871
0.203517
0.31797
0.355855
0.318657
0.356644
0.272825
0.3074
0.273407
0.308076
0.354171
0.316504
0.355022
0.317243
0.305948
0.271574
0.306679
0.272201
0.242398
0.196899
0.243032
0.197464
0.201962
0.16049
0.202495
0.160963
0.175597
0.1756
0.176129
0.176132
0.141465
0.141469
0.141909
0.141914
0.196905
0.242402
0.19747
0.243035
0.160501
0.201972
0.160974
0.202505
0.316502
0.354166
0.317241
0.355016
0.271578
0.305947
0.272205
0.306677
0.352355
0.314929
0.35327
0.315722
0.304385
0.270235
0.305172
0.270908
0.24106
0.195705
0.241739
0.196312
0.200834
0.159488
0.201405
0.159996
0.174472
0.174475
0.175044
0.175047
0.140522
0.140527
0.141
0.141005
0.195712
0.241064
0.196318
0.241743
0.1595
0.200845
0.160008
0.201416
0.314928
0.352351
0.315721
0.353264
0.270241
0.304385
0.270913
0.305171
0.35041
0.313245
0.35139
0.314093
0.30271
0.268803
0.303553
0.269523
0.239628
0.194427
0.240354
0.195076
0.199626
0.158415
0.200237
0.158959
0.173267
0.17327
0.173879
0.173882
0.139512
0.139517
0.140024
0.140029
0.194434
0.239633
0.195083
0.240359
0.158427
0.199637
0.158971
0.200249
0.313246
0.350407
0.314093
0.351385
0.26881
0.302711
0.269529
0.303553
0.348335
0.311451
0.34938
0.312355
0.30092
0.267276
0.301821
0.268044
0.238101
0.193063
0.238875
0.193756
0.198337
0.157269
0.198989
0.15785
0.17198
0.171983
0.172633
0.172636
0.138433
0.138438
0.13898
0.138985
0.193071
0.238107
0.193763
0.23888
0.157281
0.198348
0.157862
0.199001
0.311453
0.348334
0.312356
0.349377
0.267283
0.300923
0.268051
0.301822
0.34613
0.309546
0.34724
0.310505
0.299017
0.265654
0.299974
0.26647
0.236478
0.191613
0.2373
0.192349
0.196966
0.15605
0.197659
0.156667
0.170611
0.170615
0.171305
0.171309
0.137284
0.137289
0.137866
0.137871
0.191621
0.236485
0.192357
0.237306
0.156062
0.196978
0.156679
0.197671
0.309549
0.346129
0.310507
0.347238
0.265662
0.29902
0.266477
0.299977
0.343795
0.307531
0.34497
0.308545
0.297001
0.263937
0.298014
0.2648
0.23476
0.190077
0.23563
0.190855
0.195515
0.154758
0.196248
0.155411
0.16916
0.169164
0.169895
0.169899
0.136066
0.136072
0.136682
0.136688
0.190086
0.234768
0.190864
0.235637
0.15477
0.195528
0.155424
0.196261
0.307535
0.343796
0.308548
0.344969
0.263946
0.297005
0.264808
0.298018
0.341334
0.305408
0.342571
0.306476
0.294875
0.26213
0.295943
0.263037
0.23295
0.188457
0.233865
0.189277
0.193985
0.153395
0.194757
0.154084
0.16763
0.167634
0.168404
0.168408
0.134781
0.134787
0.135431
0.135436
0.188466
0.232958
0.189286
0.233873
0.153408
0.193999
0.154097
0.194771
0.305413
0.341336
0.30648
0.342572
0.262139
0.294881
0.263046
0.295947
0.338755
0.303181
0.34005
0.3043
0.292645
0.260235
0.293765
0.261186
0.23105
0.186756
0.23201
0.187616
0.19238
0.151964
0.19319
0.152686
0.166022
0.166026
0.166835
0.166839
0.133432
0.133437
0.134113
0.134119
0.186766
0.231059
0.187626
0.232019
0.151978
0.192395
0.1527
0.193204
0.303187
0.338758
0.304305
0.340052
0.260246
0.292652
0.261196
0.29377
0.336064
0.300864
0.337415
0.302026
0.290318
0.258255
0.291485
0.259249
0.229067
0.184977
0.230068
0.185876
0.190704
0.150469
0.191549
0.151223
0.16434
0.164344
0.16519
0.165194
0.13202
0.132026
0.132732
0.132738
0.184988
0.229077
0.185886
0.230077
0.150483
0.190719
0.151237
0.191564
0.300871
0.336069
0.302033
0.337418
0.258266
0.290325
0.259259
0.291491
0.333264
0.298452
0.334669
0.299663
0.2879
0.256195
0.289112
0.257227
0.227001
0.183123
0.228043
0.18406
0.188959
0.148911
0.189838
0.149696
0.162585
0.16259
0.163471
0.163476
0.130549
0.130555
0.131291
0.131297
0.183134
0.227012
0.18407
0.228054
0.148925
0.188974
0.149711
0.189853
0.29846
0.33327
0.29967
0.334674
0.256207
0.287908
0.257239
0.289119
0.330359
0.295945
0.331817
0.297204
0.285395
0.254058
0.286651
0.255129
0.224851
0.181192
0.225936
0.182167
0.187146
0.147291
0.188059
0.148108
0.160757
0.160761
0.16168
0.161685
0.129019
0.129025
0.129791
0.129797
0.181203
0.224863
0.182178
0.225948
0.147306
0.187162
0.148122
0.188075
0.295955
0.330366
0.297212
0.331822
0.254071
0.285405
0.255142
0.286659
0.327345
0.293338
0.328858
0.294648
0.282802
0.251842
0.284102
0.252953
0.222611
0.179176
0.223743
0.180195
0.185261
0.145605
0.186212
0.146456
0.158846
0.158851
0.159812
0.159817
0.127425
0.127431
0.12823
0.128236
0.179188
0.222624
0.180207
0.223755
0.14562
0.185278
0.146471
0.186228
0.293349
0.327354
0.294658
0.328865
0.251856
0.282812
0.252967
0.284111
0.324209
0.290614
0.325786
0.291985
0.28011
0.249533
0.281461
0.250693
0.220263
0.177057
0.221452
0.178131
0.183292
0.143839
0.184287
0.144732
0.156836
0.156841
0.157855
0.15786
0.125754
0.12576
0.126599
0.126606
0.17707
0.220276
0.178143
0.221465
0.143854
0.18331
0.144747
0.184304
0.290626
0.324219
0.291996
0.325794
0.249548
0.280121
0.250708
0.281472
0.320917
0.287738
0.322577
0.289191
0.277292
0.247105
0.278711
0.248329
0.217771
0.174801
0.219037
0.175949
0.181211
0.141966
0.182267
0.142917
0.15469
0.154695
0.155783
0.155788
0.123978
0.123985
0.124881
0.124887
0.174814
0.217785
0.175962
0.219051
0.141981
0.181229
0.142933
0.182284
0.287751
0.320928
0.289203
0.322587
0.24712
0.277304
0.248345
0.278722
0.317415
0.284654
0.319189
0.28622
0.274305
0.244505
0.275816
0.245823
0.215078
0.172349
0.216453
0.173604
0.17897
0.13994
0.180113
0.140975
0.152352
0.152357
0.15355
0.153555
0.122053
0.122059
0.123037
0.123043
0.172362
0.215093
0.173617
0.216468
0.139956
0.178989
0.140991
0.180131
0.284668
0.317427
0.286233
0.3192
0.244522
0.274318
0.245839
0.275828
0.313623
0.281279
0.315554
0.283002
0.271081
0.241672
0.27272
0.243116
0.212102
0.169619
0.21363
0.171025
0.176504
0.137694
0.177769
0.138849
0.149738
0.149743
0.151085
0.151091
0.11991
0.119916
0.121013
0.121019
0.169633
0.212118
0.171038
0.213646
0.13771
0.176523
0.138865
0.177788
0.281295
0.313637
0.283016
0.315566
0.241689
0.271096
0.243133
0.272734
0.309436
0.277507
0.311579
0.279444
0.267528
0.23851
0.269345
0.240132
0.208732
0.166498
0.210473
0.168115
0.173718
0.135133
0.175156
0.136459
0.146736
0.146742
0.148293
0.148299
0.117455
0.117462
0.118727
0.118734
0.166513
0.208749
0.16813
0.21049
0.13515
0.173738
0.136475
0.175176
0.277524
0.309452
0.27946
0.311593
0.238529
0.267544
0.24015
0.26936
0.30473
0.273198
0.307148
0.275423
0.263528
0.234897
0.265584
0.236762
0.204818
0.162837
0.206854
0.164746
0.170483
0.132132
0.172165
0.133696
0.143201
0.143207
0.145045
0.145052
0.114567
0.114574
0.116073
0.11608
0.162853
0.204838
0.164762
0.206872
0.13215
0.170504
0.133714
0.172186
0.273218
0.304749
0.275441
0.307164
0.234917
0.263546
0.236782
0.2656
0.299421
0.268159
0.302142
0.27078
0.258977
0.230647
0.261317
0.232862
0.200122
0.158417
0.20259
0.16074
0.16659
0.128503
0.168637
0.130411
0.138943
0.13895
0.141175
0.141182
0.111087
0.111095
0.112911
0.112918
0.158435
0.200144
0.160757
0.20261
0.128522
0.166613
0.130429
0.16866
0.268182
0.299443
0.270801
0.302161
0.23067
0.258998
0.232883
0.261336
0.293902
0.261833
0.296591
0.265228
0.254093
0.225213
0.256509
0.228149
0.194051
0.152873
0.197325
0.155816
0.161504
0.123931
0.164256
0.126361
0.133751
0.133758
0.136474
0.136481
0.10684
0.106848
0.109067
0.109075
0.152893
0.194077
0.155835
0.197349
0.123951
0.16153
0.12638
0.164281
0.26186
0.293929
0.265253
0.296615
0.225239
0.254118
0.228173
0.256531
0.292713
0.250004
0.292064
0.257444
0.252364
0.214684
0.252273
0.221342
0.184823
0.145799
0.190018
0.149527
0.153604
0.11806
0.158073
0.121156
0.127622
0.12763
0.130778
0.130786
0.10184
0.101848
0.10441
0.104418
0.145821
0.184852
0.149548
0.190045
0.118082
0.153632
0.121177
0.1581
0.250035
0.292749
0.257474
0.292094
0.214714
0.252395
0.22137
0.252301
0.153778
0.127472
0.0867205
0.0715377
0.146124
0.120816
0.0810002
0.0666971
0.0677632
0.0307668
0.0273474
0.00775234
0.0627787
0.0272319
0.0243798
0.00685544
0.0121952
0.0122104
0.00357875
0.00358203
0.0100922
0.0101052
0.00330539
0.00330772
0.0308012
0.0677947
0.00776483
0.0273778
0.0272625
0.062807
0.00686555
0.0244071
0.127503
0.153806
0.0715703
0.0867476
0.120844
0.146149
0.0667267
0.0810245
0.243038
0.207565
0.203836
0.171673
0.23119
0.196761
0.194126
0.162991
0.135515
0.0892972
0.103873
0.0601792
0.126236
0.08118
0.0968001