/*--------------------------------*- C++ -*----------------------------------*\
  =========                 |
  \\      /  F ield         | OpenFOAM: The Open Source CFD Toolbox
   \\    /   O peration     | Website:  https://openfoam.org
    \\  /    A nd           | Version:  9
     \\/     M anipulation  |
\*---------------------------------------------------------------------------*/
FoamFile
{
    format      ascii;
    class       surfaceScalarField;
    location    "2.65";
    object      phi;
}
// * * * * * * * * * * * * * * * * * * * * * * * * * * * * * * * * * * * * * //

dimensions      [0 3 -1 0 0 0 0];

internalField   nonuniform List<scalar> 
104044
(
5.06731e-07
-6.61625e-05
-1.47739e-06
6.49889e-05
2.14424e-06
-4.54392e-05
-2.22764e-06
-1.90543e-07
4.78703e-05
4.93777e-07
2.83597e-07
-2.55831e-06
2.77092e-06
-1.65094e-06
-1.11367e-07
1.41985e-08
-7.66962e-09
-7.28468e-05
7.1377e-05
-4.04003e-05
1.99509e-08
3.81451e-05
2.47545e-08
-1.30515e-08
-9.95154e-09
-5.10314e-05
-2.62854e-06
5.14978e-05
1.98151e-06
-5.33531e-05
-1.03149e-06
-2.60406e-10
5.37099e-05
6.65041e-07
-5.53089e-09
-2.07622e-06
1.24422e-06
-1.15586e-06
7.13448e-11
4.01815e-07
-5.65862e-09
-5.41363e-05
5.15334e-05
-5.61708e-05
-3.14199e-09
5.51368e-05
-1.02965e-08
-1.71747e-09
5.09428e-12
-5.41294e-05
-4.99493e-07
5.46214e-05
7.27205e-09
-5.41295e-05
-4.99602e-07
2.73968e-10
5.46215e-05
7.35615e-09
2.24953e-12
-1.02653e-06
1.88655e-07
-1.02648e-06
-6.78808e-11
1.88586e-07
9.00558e-12
-5.54116e-05
5.4909e-05
-5.5412e-05
3.14507e-09
5.49093e-05
2.92286e-12
1.72412e-09
9.9716e-09
-5.33533e-05
-1.03212e-06
5.371e-05
6.65757e-07
-5.10321e-05
-2.62883e-06
1.90637e-07
5.14983e-05
1.98193e-06
5.53586e-09
-1.15616e-06
4.0219e-07
-2.07665e-06
1.11454e-07
1.24469e-06
5.6736e-09
-5.6171e-05
5.51363e-05
-5.4135e-05
-1.99496e-08
5.15318e-05
1.0305e-08
1.30427e-08
-5.06875e-07
-4.54398e-05
-2.22646e-06
4.78707e-05
4.9315e-07
-6.61613e-05
-1.47836e-06
6.49877e-05
2.14506e-06
-2.83721e-07
-1.64908e-06
1.30623e-08
-2.55948e-06
2.77174e-06
7.63102e-09
-4.03975e-05
3.81434e-05
-7.28488e-05
7.13781e-05
-2.47531e-08
3.78724e-07
-6.36884e-05
-2.00799e-06
6.25101e-05
2.80763e-06
-4.9387e-05
1.20576e-06
-1.04681e-07
5.02822e-05
-1.61754e-06
4.60647e-07
-1.74816e-06
2.58802e-06
-3.40195e-07
-1.54679e-07
-5.61194e-07
-3.43349e-07
-6.97868e-05
6.81222e-05
-3.7535e-05
2.16097e-07
3.81814e-05
-1.57954e-07
1.11884e-07
-1.46688e-08
-5.18666e-05
-1.89443e-06
5.19303e-05
1.74073e-06
-5.38871e-05
-1.23417e-06
-3.22224e-09
5.38835e-05
1.22634e-06
-1.15423e-08
-2.5754e-06
2.06343e-06
-1.29558e-06
-1.37763e-09
1.10813e-06
-5.0033e-09
-4.90756e-05
4.74023e-05
-5.38393e-05
-6.15357e-09
5.26062e-05
-5.71138e-09
-3.78816e-09
-1.54227e-11
-5.48807e-05
-5.67327e-07
5.48175e-05
6.27381e-07
-5.48806e-05
-5.67497e-07
3.19717e-09
5.48173e-05
6.27564e-07
7.21912e-12
-4.77377e-07
2.16621e-07
-4.77677e-07
1.40182e-09
2.17129e-07
1.0572e-11
-5.44278e-05
5.38543e-05
-5.44278e-05
6.18692e-09
5.38541e-05
1.26077e-11
3.8056e-09
1.48479e-08
-5.38871e-05
-1.23419e-06
5.38834e-05
1.22627e-06
-5.18669e-05
-1.89413e-06
1.04713e-07
5.19303e-05
1.74082e-06
1.1594e-08
-1.29588e-06
1.10853e-06
-2.57516e-06
1.54745e-07
2.06345e-06
5.04849e-09
-5.38385e-05
5.26055e-05
-4.90743e-05
-2.16146e-07
4.74013e-05
5.74021e-09
-1.11917e-07
-3.78843e-07
-4.9387e-05
1.20637e-06
5.02821e-05
-1.6179e-06
-6.36872e-05
-2.00861e-06
6.25087e-05
2.80824e-06
-4.60757e-07
-3.39167e-07
-5.61696e-07
-1.74895e-06
2.58876e-06
3.43319e-07
-3.75344e-05
3.81813e-05
-6.97871e-05
6.81218e-05
1.57929e-07
1.59279e-07
-6.1491e-05
-2.27025e-06
6.06049e-05
2.99702e-06
-5.0909e-05
2.53401e-06
1.86969e-09
5.14145e-05
-2.88201e-06
2.68434e-07
-2.14469e-06
2.89536e-06
2.03921e-06
-4.81983e-08
-2.34939e-06
-7.21383e-07
-6.65086e-05
6.49597e-05
-3.93756e-05
4.04589e-07
4.07837e-05
-5.3108e-07
3.13839e-07
-1.39256e-09
-5.18779e-05
-8.88542e-07
5.18282e-05
9.41537e-07
-5.37361e-05
-7.31506e-07
-1.1824e-08
5.35316e-05
9.46443e-07
-1.03444e-08
-1.28259e-06
1.29716e-06
-9.675e-07
-8.54616e-09
1.11313e-06
1.32195e-08
-4.64318e-05
4.59346e-05
-5.16489e-05
-8.75862e-09
5.09394e-05
1.72356e-09
-8.45968e-09
1.58608e-11
-5.46529e-05
-5.44345e-07
5.44447e-05
7.40698e-07
-5.46528e-05
-5.44351e-07
1.18583e-08
5.44446e-05
7.40699e-07
1.82994e-11
-6.17809e-07
7.73784e-07
-6.17873e-07
8.55934e-09
7.73875e-07
1.37168e-11
-5.32281e-05
5.26749e-05
-5.32278e-05
8.79986e-09
5.26746e-05
1.34655e-11
8.49209e-09
1.41889e-09
-5.37359e-05
-7.31455e-07
5.35314e-05
9.46413e-07
-5.18778e-05
-8.88395e-07
-1.8532e-09
5.18281e-05
9.41409e-07
1.03356e-08
-9.67444e-07
1.11317e-06
-1.28236e-06
4.82271e-08
1.29695e-06
-1.31965e-08
-5.16482e-05
5.09388e-05
-4.64312e-05
-4.04658e-07
4.59343e-05
-1.69475e-09
-3.139e-07
-1.59391e-07
-5.09089e-05
2.53428e-06
5.14143e-05
-2.88214e-06
-6.14895e-05
-2.27056e-06
6.06034e-05
2.99727e-06
-2.68533e-07
2.03965e-06
-2.3497e-06
-2.14511e-06
2.89575e-06
7.2131e-07
-3.9376e-05
4.07844e-05
-6.65077e-05
6.49585e-05
5.31034e-07
-4.61474e-08
-5.98456e-05
-2.36017e-06
5.91791e-05
3.07289e-06
-5.18367e-05
2.89674e-06
9.74797e-08
5.22035e-05
-3.40715e-06
5.17407e-08
-2.30473e-06
3.01227e-06
2.75002e-06
5.42239e-08
-3.17473e-06
-1.04097e-06
-6.35365e-05
6.22173e-05
-4.2181e-05
5.31782e-07
4.3505e-05
-8.81485e-07
4.71256e-07
2.39253e-08
-5.18295e-05
-4.26409e-07
5.18849e-05
4.4461e-07
-5.33376e-05
-4.10195e-07
-7.83867e-09
5.31771e-05
6.02501e-07
1.01446e-08
-6.06088e-07
6.48793e-07
-5.37945e-07
-1.02675e-08
7.5233e-07
4.44712e-08
-4.57721e-05
4.5833e-05
-5.04374e-05
-7.2147e-09
5.00789e-05
2.77004e-08
-8.23589e-09
1.42335e-11
-5.42269e-05
-2.98739e-07
5.40267e-05
4.91136e-07
-5.42268e-05
-2.98746e-07
7.86587e-09
5.40266e-05
4.91128e-07
1.52896e-11
-4.0137e-07
6.08903e-07
-4.01381e-07
1.03092e-08
6.08895e-07
1.28105e-11
-5.22653e-05
5.19594e-05
-5.2265e-05
7.24238e-09
5.1959e-05
1.39483e-11
8.26195e-09
-2.39015e-08
-5.33374e-05
-4.10173e-07
5.31769e-05
6.02464e-07
-5.18295e-05
-4.2636e-07
-9.74798e-08
5.18848e-05
4.44572e-07
-1.01238e-08
-5.37911e-07
7.52295e-07
-6.06007e-07
-5.41936e-08
6.48706e-07
-4.44472e-08
-5.04368e-05
5.00783e-05
-4.57719e-05
-5.31849e-07
4.58329e-05
-2.76774e-08
-4.71324e-07
4.60162e-08
-5.18366e-05
2.89672e-06
5.22033e-05
-3.40699e-06
-5.98441e-05
-2.36027e-06
5.91775e-05
3.07288e-06
-5.18614e-08
2.75016e-06
-3.17472e-06
-2.3049e-06
3.01237e-06
1.04083e-06
-4.21818e-05
4.35058e-05
-6.35349e-05
6.22155e-05
8.81382e-07
-2.13311e-07
-5.85997e-05
-2.36732e-06
5.80845e-05
3.0959e-06
-5.25218e-05
2.94648e-06
1.36724e-07
5.27981e-05
-3.57283e-06
-1.33457e-07
-2.34455e-06
3.05734e-06
2.91162e-06
1.20634e-07
-3.48404e-06
-1.28389e-06
-6.10329e-05
5.99495e-05
-4.46891e-05
6.02118e-07
4.57496e-05
-1.16019e-06
5.67281e-07
6.79181e-08
-5.19781e-05
-2.44677e-07
5.20897e-05
2.0187e-07
-5.30578e-05
-2.4974e-07
-1.44934e-09
5.29786e-05
3.98361e-07
3.97096e-08
-3.06762e-07
2.94511e-07
-3.13673e-07
-5.13674e-09
4.77785e-07
7.78474e-08
-4.60327e-05
4.63123e-05
-4.98308e-05
-1.57109e-09
4.96605e-05
6.0791e-08
-4.83087e-09
1.43454e-11
-5.38575e-05
-1.93365e-07
5.37156e-05
3.33824e-07
-5.38574e-05
-1.93367e-07
1.483e-09
5.37155e-05
3.33815e-07
1.30367e-11
-2.29582e-07
3.93614e-07
-2.29587e-07
5.16614e-09
3.93606e-07
1.35294e-11
-5.17249e-05
5.153e-05
-5.17246e-05
1.60277e-09
5.15296e-05
1.29082e-11
4.86029e-09
-6.7872e-08
-5.30577e-05
-2.4972e-07
5.29784e-05
3.98318e-07
-5.1978e-05
-2.44653e-07
-1.36739e-07
5.20896e-05
2.019e-07
-3.96783e-08
-3.13653e-07
4.77746e-07
-3.06729e-07
-1.20642e-07
2.94509e-07
-7.78191e-08
-4.98303e-05
4.966e-05
-4.60328e-05
-6.02129e-07
4.63124e-05
-6.07653e-08
-5.67343e-07
2.1316e-07
-5.25216e-05
2.94622e-06
5.27979e-05
-3.57242e-06
-5.85981e-05
-2.36724e-06
5.80829e-05
3.09566e-06
1.33318e-07
2.9115e-06
-3.48375e-06
-2.34452e-06
3.05719e-06
1.28367e-06
-4.469e-05
4.57504e-05
-6.1031e-05
5.99474e-05
1.16001e-06
-3.41789e-07
-5.76293e-05
-2.34276e-06
5.72174e-05
3.09637e-06
-5.30307e-05
2.89017e-06
1.46479e-07
5.32243e-05
-3.57199e-06
-2.79244e-07
-2.33157e-06
3.06601e-06
2.89494e-06
1.42892e-07
-3.5497e-06
-1.45764e-06
-5.89826e-05
5.80975e-05
-4.66585e-05
6.45341e-07
4.74457e-05
-1.36469e-06
6.21326e-07
1.09151e-07
-5.22104e-05
-2.07719e-07
5.23318e-05
1.23653e-07
-5.29276e-05
-1.71286e-07
7.52669e-09
5.28949e-05
3.05602e-07
8.91718e-08
-2.13946e-07
1.46916e-07
-2.01168e-07
2.84511e-09
3.38449e-07
1.07427e-07
-4.66273e-05
4.69575e-05
-4.95493e-05
6.81757e-09
4.94786e-05
9.23671e-08
2.39482e-09
1.25769e-11
-5.35986e-05
-1.62552e-07
5.34983e-05
2.70443e-07
-5.35986e-05
-1.62544e-07
-7.49623e-09
5.34982e-05
2.70426e-07
1.6603e-11
-1.70991e-07
2.90736e-07
-1.70989e-07
-2.80489e-09
2.90725e-07
1.62893e-11
-5.13614e-05
5.12056e-05
-5.1361e-05
-6.78527e-09
5.12053e-05
1.36923e-11
-2.3627e-09
-1.09116e-07
-5.29275e-05
-1.71258e-07
5.28948e-05
3.05559e-07
-5.22104e-05
-2.07732e-07
-1.46507e-07
5.23318e-05
1.23737e-07
-8.91215e-08
-2.01146e-07
3.38414e-07
-2.13941e-07
-1.42921e-07
1.47009e-07
-1.07434e-07
-4.95488e-05
4.94782e-05
-4.66275e-05
-6.45338e-07
4.69577e-05
-9.23402e-08
-6.2133e-07
3.41619e-07
-5.30305e-05
2.88976e-06
5.3224e-05
-3.57139e-06
-5.76277e-05
-2.34252e-06
5.72159e-05
3.09593e-06
2.79081e-07
2.89461e-06
-3.54918e-06
-2.33136e-06
3.06563e-06
1.45736e-06
-4.66592e-05
4.74463e-05
-5.89805e-05
5.80954e-05
1.36444e-06
-4.36932e-07
-5.68464e-05
-2.30281e-06
5.65044e-05
3.08176e-06
-5.33806e-05
2.79014e-06
1.46655e-07
5.34995e-05
-3.49269e-06
-3.89063e-07
-2.29793e-06
3.05798e-06
2.81264e-06
1.43236e-07
-3.50122e-06
-1.57451e-06
-5.73061e-05
5.65778e-05
-4.81021e-05
6.62308e-07
4.86554e-05
-1.50653e-06
6.49706e-07
1.40319e-07
-5.24436e-05
-2.29986e-07
5.25464e-05
1.33434e-07
-5.28738e-05
-1.3549e-07
1.70772e-08
5.28582e-05
2.74316e-07
1.24484e-07
-2.12766e-07
1.19795e-07
-1.48321e-07
1.22023e-08
2.81725e-07
1.22125e-07
-4.72797e-05
4.75899e-05
-4.94337e-05
1.58785e-08
4.94045e-05
1.1473e-07
1.13342e-08
-3.0825e-12
-5.3411e-05
-1.56999e-07
5.33307e-05
2.5436e-07
-5.34109e-05
-1.56999e-07
-1.71267e-08
5.33306e-05
2.54339e-07
1.22013e-11
-1.56666e-07
2.56171e-07
-1.56643e-07
-1.21759e-08
2.56148e-07
-5.16712e-11
-5.10602e-05
5.09192e-05
-5.10599e-05
-1.60167e-08
5.09188e-05
5.85586e-11
-1.1164e-08
-1.40242e-07
-5.28736e-05
-1.35508e-07
5.2858e-05
2.74297e-07
-5.24435e-05
-2.29952e-07
-1.46653e-07
5.25463e-05
1.3354e-07
-1.24479e-07
-1.48242e-07
2.81683e-07
-2.1284e-07
-1.43235e-07
1.19888e-07
-1.2246e-07
-4.94332e-05
4.94041e-05
-4.728e-05
-6.6241e-07
4.759e-05
-1.1438e-07
-6.49569e-07
4.36742e-07
-5.33803e-05
2.78965e-06
5.34992e-05
-3.49195e-06
-5.68449e-05
-2.30242e-06
5.6503e-05
3.08113e-06
3.8889e-07
2.81217e-06
-3.50055e-06
-2.29758e-06
3.05742e-06
1.57412e-06
-4.81027e-05
4.86558e-05
-5.7304e-05
5.65757e-05
1.50625e-06
-5.05746e-07
-5.61897e-05
-2.25527e-06
5.58942e-05
3.05652e-06
-5.35851e-05
2.67582e-06
1.45203e-07
5.36391e-05
-3.38071e-06
-4.69569e-07
-2.25518e-06
3.0395e-06
2.70473e-06
1.45246e-07
-3.40514e-06
-1.64869e-06
-5.59229e-05
5.53164e-05
-4.91019e-05
6.63238e-07
4.94658e-05
-1.60033e-06
6.57912e-07
1.6268e-07
-5.26342e-05
-2.72439e-07
5.27059e-05
1.83319e-07
-5.28444e-05
-1.21132e-07
2.35606e-08
5.2829e-05
2.75614e-07
1.51182e-07
-2.48401e-07
1.54664e-07
-1.25337e-07
2.11025e-08
2.6926e-07
1.31968e-07
-4.78728e-05
4.81316e-05
-4.93855e-05
2.44222e-08
4.9372e-05
1.26647e-07
2.02153e-08
-1.0538e-10
-5.32555e-05
-1.58147e-07
5.31808e-05
2.56519e-07
-5.32553e-05
-1.58104e-07
-2.39936e-08
5.31807e-05
2.56548e-07
2.67599e-10
-1.55672e-07
2.51705e-07
-1.55731e-07
-2.02563e-08
2.51617e-07
-6.0082e-11
-5.07837e-05
5.065e-05
-5.07833e-05
-2.47475e-08
5.06499e-05
1.6847e-11
-2.02158e-08
-1.62737e-07
-5.28444e-05
-1.21226e-07
5.28288e-05
2.7553e-07
-5.26342e-05
-2.72437e-07
-1.45249e-07
5.27057e-05
1.8342e-07
-1.50904e-07
-1.25152e-07
2.69359e-07
-2.48418e-07
-1.45159e-07
1.54805e-07
-1.32514e-07
-4.93851e-05
4.93717e-05
-4.7873e-05
-6.63346e-07
4.81314e-05
-1.26389e-07
-6.57805e-07
5.0552e-07
-5.35848e-05
2.67524e-06
5.36386e-05
-3.37988e-06
-5.61883e-05
-2.25481e-06
5.58929e-05
3.05577e-06
4.694e-07
2.70421e-06
-3.40436e-06
-2.25471e-06
3.03878e-06
1.64826e-06
-4.91022e-05
4.94658e-05
-5.5921e-05
5.53144e-05
1.59998e-06
-5.5385e-07
-5.56168e-05
-2.20252e-06
5.53518e-05
3.02135e-06
-5.36654e-05
2.56122e-06
1.39654e-07
5.36644e-05
-3.25376e-06
-5.26685e-07
-2.20445e-06
3.00851e-06
2.58984e-06
1.41391e-07
-3.28426e-06
-1.69041e-06
-5.47679e-05
5.42558e-05
-4.97462e-05
6.53753e-07
4.99632e-05
-1.65597e-06
6.53483e-07
1.77608e-07
-5.2759e-05
-3.18232e-07
5.27944e-05
2.44917e-07
-5.28094e-05
-1.20313e-07
2.90128e-08
5.27832e-05
2.95064e-07
1.69154e-07
-2.92383e-07
2.11509e-07
-1.18264e-07
2.60836e-08
2.80949e-07
1.36755e-07
-4.83572e-05
4.85559e-05
-4.93614e-05
2.74418e-08
4.93504e-05
1.35566e-07
2.7904e-08
-2.17811e-11
-5.31063e-05
-1.59494e-07
5.3029e-05
2.65852e-07
-5.31063e-05
-1.59869e-07
-2.87099e-08
5.30289e-05
2.65858e-07
8.47759e-12
-1.57466e-07
2.57974e-07
-1.57228e-07
-2.62663e-08
2.57971e-07
-1.09948e-09
-5.05198e-05
5.03888e-05
-5.05189e-05
-3.13641e-08
5.03893e-05
6.65521e-10
-2.56023e-08
-1.77384e-07
-5.28092e-05
-1.20217e-07
5.27831e-05
2.95027e-07
-5.27589e-05
-3.17764e-07
-1.39736e-07
5.2794e-05
2.44998e-07
-1.69267e-07
-1.18269e-07
2.8089e-07
-2.92745e-07
-1.4137e-07
2.1163e-07
-1.40266e-07
-4.93611e-05
4.93498e-05
-4.8358e-05
-6.54904e-07
4.85549e-05
-1.33304e-07
-6.52698e-07
5.53559e-07
-5.3665e-05
2.56077e-06
5.36639e-05
-3.25293e-06
-5.56156e-05
-2.20192e-06
5.53506e-05
3.02049e-06
5.26488e-07
2.58915e-06
-3.28341e-06
-2.20395e-06
3.00769e-06
1.6896e-06
-4.97465e-05
4.99628e-05
-5.47663e-05
5.42539e-05
1.65577e-06
-5.86344e-07
-5.50982e-05
-2.15016e-06
5.48519e-05
2.98278e-06
-5.36411e-05
2.45486e-06
1.32375e-07
5.35943e-05
-3.12677e-06
-5.66343e-07
-2.15306e-06
2.97304e-06
2.48123e-06
1.34922e-07
-3.15913e-06
-1.70928e-06
-5.37885e-05
5.33476e-05
-5.01164e-05
6.40105e-07
5.02218e-05
-1.6858e-06
6.42311e-07
1.86463e-07
-5.28111e-05
-3.63926e-07
5.28087e-05
3.12294e-07
-5.27495e-05
-1.28601e-07
3.29565e-08
5.2706e-05
3.25566e-07
1.80784e-07
-3.37832e-07
2.75197e-07
-1.22199e-07
3.05153e-08
3.06238e-07
1.41037e-07
-4.87194e-05
4.88545e-05
-4.93355e-05
3.23218e-08
4.93156e-05
1.41048e-07
3.37025e-08
-9.2505e-12
-5.2949e-05
-1.61333e-07
5.28637e-05
2.79604e-07
-5.29489e-05
-1.61489e-07
-3.28569e-08
5.28637e-05
2.79612e-07
-9.26498e-13
-1.59213e-07
2.69711e-07
-1.58773e-07
-3.09365e-08
2.69708e-07
-4.69316e-10
-5.02619e-05
5.01334e-05
-5.02611e-05
-3.42028e-08
5.01334e-05
1.39807e-09
-2.91666e-08
-1.86375e-07
-5.27493e-05
-1.28533e-07
5.27058e-05
3.25516e-07
-5.2811e-05
-3.63782e-07
-1.32417e-07
5.28084e-05
3.12401e-07
-1.80955e-07
-1.22413e-07
3.06196e-07
-3.38438e-07
-1.34857e-07
2.75355e-07
-1.42568e-07
-4.93355e-05
4.93153e-05
-4.87202e-05
-6.40528e-07
4.88543e-05
-1.37287e-07
-6.4096e-07
5.8607e-07
-5.36407e-05
2.45428e-06
5.35938e-05
-3.12589e-06
-5.50971e-05
-2.14958e-06
5.48509e-05
2.98188e-06
5.66158e-07
2.48043e-06
-3.15822e-06
-2.15255e-06
2.97216e-06
1.70868e-06
-5.01165e-05
5.02216e-05
-5.37871e-05
5.33462e-05
1.68575e-06
-6.06853e-07
-5.46122e-05
-2.09981e-06
5.4375e-05
2.94385e-06
-5.35292e-05
2.35565e-06
1.24532e-07
5.34434e-05
-3.0013e-06
-5.9199e-07
-2.10151e-06
2.93321e-06
2.37916e-06
1.27226e-07
-3.03327e-06
-1.71168e-06
-5.29414e-05
5.25532e-05
-5.02797e-05
6.2372e-07
5.02999e-05
-1.69528e-06
6.26021e-07
1.90869e-07
-5.27876e-05
-4.0667e-07
5.27479e-05
3.8007e-07
-5.26524e-05
-1.43728e-07
3.59482e-08
5.25871e-05
3.63969e-07
1.87261e-07
-3.82373e-07
3.43404e-07
-1.34203e-07
3.42012e-08
3.40832e-07
1.42856e-07
-4.89569e-05
4.9031e-05
-4.92882e-05
3.5982e-08
4.92513e-05
1.41298e-07
3.45347e-08
1.39198e-11
-5.2774e-05
-1.64393e-07
5.26769e-05
2.97387e-07
-5.2774e-05
-1.64391e-07
-3.59161e-08
5.26769e-05
2.97382e-07
1.08706e-11
-1.60973e-07
2.84872e-07
-1.60954e-07
-3.41841e-08
2.84871e-07
1.18614e-11
-5.00069e-05
4.98785e-05
-5.00067e-05
-3.59838e-08
4.98783e-05
6.77483e-11
-3.42115e-08
-1.90801e-07
-5.26523e-05
-1.43706e-07
5.25869e-05
3.63916e-07
-5.27874e-05
-4.0669e-07
-1.24533e-07
5.27476e-05
3.80175e-07
-1.87203e-07
-1.34182e-07
3.40775e-07
-3.82406e-07
-1.27229e-07
3.43506e-07
-1.42848e-07
-4.92879e-05
4.92511e-05
-4.89568e-05
-6.23682e-07
4.9031e-05
-1.41018e-07
-6.25937e-07
6.06584e-07
-5.35287e-05
2.35505e-06
5.34429e-05
-3.00042e-06
-5.46113e-05
-2.09923e-06
5.43742e-05
2.94293e-06
5.91729e-07
2.37857e-06
-3.03241e-06
-2.10089e-06
2.93226e-06
1.71118e-06
-5.02794e-05
5.02996e-05
-5.29401e-05
5.25521e-05
1.6948e-06
-6.18146e-07
-5.41405e-05
-2.05543e-06
5.39049e-05
2.9092e-06
-5.33419e-05
2.26328e-06
1.16693e-07
5.32209e-05
-2.87705e-06
-6.07656e-07
-2.05533e-06
2.89747e-06
2.28498e-06
1.19444e-07
-2.91057e-06
-1.70239e-06
-5.21899e-05
5.18368e-05
-5.02838e-05
6.06066e-07
5.02387e-05
-1.69197e-06
6.09089e-07
1.91989e-07
-5.26908e-05
-4.44737e-07
5.26153e-05
4.44917e-07
-5.25107e-05
-1.62739e-07
3.80897e-08
5.24212e-05
4.06174e-07
1.89942e-07
-4.22548e-07
4.09092e-07
-1.51467e-07
3.67711e-08
3.81026e-07
1.42273e-07
-4.90762e-05
4.90953e-05
-4.92046e-05
3.78941e-08
4.91462e-05
1.4139e-07
3.66962e-08
1.77116e-11
-5.25732e-05
-1.70974e-07
5.24598e-05
3.22441e-07
-5.25732e-05
-1.70968e-07
-3.80512e-08
5.24598e-05
3.22432e-07
1.61312e-11
-1.65598e-07
3.06075e-07
-1.65592e-07
-3.67354e-08
3.06068e-07
1.74785e-11
-4.97495e-05
4.96164e-05
-4.97494e-05
-3.78583e-08
4.96163e-05
1.54587e-11
-3.66633e-08
-1.91915e-07
-5.25106e-05
-1.62723e-07
5.2421e-05
4.06127e-07
-5.26905e-05
-4.44757e-07
-1.16691e-07
5.26151e-05
4.45019e-07
-1.89872e-07
-1.51448e-07
3.80977e-07
-4.22566e-07
-1.19442e-07
4.09191e-07
-1.42232e-07
-4.92043e-05
4.9146e-05
-4.90761e-05
-6.0602e-07
4.90952e-05
-1.41352e-07
-6.09045e-07
6.17869e-07
-5.33414e-05
2.2627e-06
5.32204e-05
-2.8762e-06
-5.41397e-05
-2.05485e-06
5.39042e-05
2.90827e-06
6.07386e-07
2.2844e-06
-2.90972e-06
-2.0547e-06
2.89651e-06
1.70189e-06
-5.02835e-05
5.02383e-05
-5.21889e-05
5.18359e-05
1.69147e-06
-6.22722e-07
-5.36681e-05
-2.01693e-06
5.3427e-05
2.88077e-06
-5.30864e-05
2.17469e-06
1.09358e-07
5.29332e-05
-2.75349e-06
-6.15014e-07
-2.01286e-06
2.86471e-06
2.19435e-06
1.11842e-07
-2.78677e-06
-1.68528e-06
-5.1502e-05
5.11703e-05
-5.01637e-05
5.88412e-07
5.00647e-05
-1.67799e-06
5.91311e-07
1.90764e-07
-5.25236e-05
-4.79527e-07
5.24131e-05
5.08652e-07
-5.23197e-05
-1.84957e-07
3.94454e-08
5.22035e-05
4.52424e-07
1.89717e-07
-4.58512e-07
4.72359e-07
-1.7182e-07
3.84724e-08
4.24581e-07
1.40495e-07
-4.9088e-05
4.90563e-05
-4.90763e-05
3.90416e-08
4.89928e-05
1.40101e-07
3.81722e-08
1.9315e-11
-5.2338e-05
-1.82153e-07
5.22046e-05
3.5505e-07
-5.2338e-05
-1.82146e-07
-3.94043e-08
5.22045e-05
3.55042e-07
1.8482e-11
-1.74243e-07
3.34477e-07
-1.74237e-07
-3.84327e-08
3.34469e-07
1.94512e-11
-4.94803e-05
4.93372e-05
-4.94802e-05
-3.90024e-08
4.93371e-05
1.84838e-11
-3.81346e-08
-1.90689e-07
-5.23195e-05
-1.84944e-07
5.22033e-05
4.5238e-07
-5.25233e-05
-4.79544e-07
-1.09356e-07
5.24128e-05
5.08746e-07
-1.89643e-07
-1.71805e-07
4.24536e-07
-4.58527e-07
-1.11839e-07
4.72454e-07
-1.40452e-07
-4.90761e-05
4.89926e-05
-4.90878e-05
-5.88368e-07
4.90562e-05
-1.4006e-07
-5.91267e-07
6.22441e-07
-5.30859e-05
2.17412e-06
5.29327e-05
-2.75265e-06
-5.36674e-05
-2.01636e-06
5.34264e-05
2.87985e-06
6.14737e-07
2.19379e-06
-2.78594e-06
-2.01225e-06
2.86375e-06
1.68478e-06
-5.01633e-05
5.00643e-05
-5.15012e-05
5.11696e-05
1.67749e-06
-6.22586e-07
-5.31815e-05
-1.98604e-06
5.29286e-05
2.86158e-06
-5.27674e-05
2.0908e-06
1.02711e-07
5.25828e-05
-2.63146e-06
-6.16891e-07
-1.97816e-06
2.8405e-06
2.10891e-06
1.0489e-07
-2.66491e-06
-1.66321e-06
-5.08501e-05
5.05273e-05
-4.99416e-05
5.71506e-07
4.97977e-05
-1.65794e-06
5.74061e-07
1.88026e-07
-5.22867e-05
-5.12877e-07
5.21412e-05
5.73051e-07
-5.20744e-05
-2.10379e-07
4.01667e-08
5.19292e-05
5.0348e-07
1.87633e-07
-4.91896e-07
5.35587e-07
-1.95389e-07
3.94758e-08
4.72621e-07
1.38014e-07
-4.90006e-05
4.89212e-05
-4.88964e-05
3.9594e-08
4.87844e-05
1.37935e-07
3.89892e-08
2.01849e-11
-5.20611e-05
-1.98112e-07
5.19038e-05
3.95538e-07
-5.2061e-05
-1.98105e-07
-4.01243e-08
5.19038e-05
3.9553e-07
1.9616e-11
-1.87643e-07
3.70578e-07
-1.87637e-07
-3.94344e-08
3.7057e-07
2.04254e-11
-4.91885e-05
4.903e-05
-4.91884e-05
-3.95534e-08
4.90299e-05
1.9816e-11
-3.89496e-08
-1.87951e-07
-5.20743e-05
-2.10368e-07
5.1929e-05
5.03437e-07
-5.22864e-05
-5.1289e-07
-1.0271e-07
5.21409e-05
5.73138e-07
-1.87558e-07
-1.95376e-07
4.72577e-07
-4.91907e-07
-1.04889e-07
5.35674e-07
-1.3797e-07
-4.88962e-05
4.87842e-05
-4.90004e-05
-5.71465e-07
4.8921e-05
-1.37892e-07
-5.74019e-07
6.22303e-07
-5.27669e-05
2.09025e-06
5.25823e-05
-2.63065e-06
-5.3181e-05
-1.98548e-06
5.29281e-05
2.86068e-06
6.16611e-07
2.10837e-06
-2.6641e-06
-1.97756e-06
2.83957e-06
1.66271e-06
-4.99412e-05
4.97972e-05
-5.08495e-05
5.05267e-05
1.65745e-06
-6.18379e-07
-5.26686e-05
-1.95995e-06
5.23982e-05
2.84869e-06
-5.2386e-05
2.00716e-06
9.67027e-08
5.217e-05
-2.50619e-06
-6.14593e-07
-1.95004e-06
2.82463e-06
2.02619e-06
9.86208e-08
-2.54267e-06
-1.63608e-06
-5.02106e-05
4.98868e-05
-4.96331e-05
5.54811e-07
4.94494e-05
-1.63341e-06
5.57393e-07
1.84098e-07
-5.19799e-05
-5.44338e-07
5.1799e-05
6.37837e-07
-5.17701e-05
-2.38459e-07
4.03335e-08
5.15935e-05
5.58907e-07
1.84274e-07
-5.23803e-07
5.99415e-07
-2.21875e-07
3.99004e-08
5.25301e-07
1.3491e-07
-4.88196e-05
4.86952e-05
-4.86584e-05
3.96328e-08
4.85152e-05
1.35135e-07
3.9267e-08
2.06813e-11
-5.1735e-05
-2.18543e-07
5.15505e-05
4.43428e-07
-5.1735e-05
-2.18537e-07
-4.02905e-08
5.15504e-05
4.4342e-07
2.02637e-11
-2.05665e-07
4.14338e-07
-2.0566e-07
-3.98581e-08
4.1433e-07
2.09597e-11
-4.88636e-05
4.86847e-05
-4.88635e-05
-3.95916e-08
4.86846e-05
2.05268e-11
-3.92265e-08
-1.84024e-07
-5.177e-05
-2.38448e-07
5.15933e-05
5.58865e-07
-5.19796e-05
-5.44348e-07
-9.67031e-08
5.17987e-05
6.37916e-07
-1.84201e-07
-2.21864e-07
5.25259e-07
-5.23811e-07
-9.86205e-08
5.99496e-07
-1.34867e-07
-4.86582e-05
4.85151e-05
-4.88195e-05
-5.54773e-07
4.8695e-05
-1.35093e-07
-5.57354e-07
6.18097e-07
-5.23856e-05
2.00663e-06
5.21696e-05
-2.5054e-06
-5.26681e-05
-1.95941e-06
5.23978e-05
2.84782e-06
6.14312e-07
2.02568e-06
-2.54189e-06
-1.94945e-06
2.82371e-06
1.63559e-06
-4.96326e-05
4.94489e-05
-5.02102e-05
4.98863e-05
1.63292e-06
-6.119e-07
-5.21183e-05
-1.94102e-06
5.18253e-05
2.84594e-06
-5.19415e-05
1.92517e-06
9.14593e-08
5.16927e-05
-2.37974e-06
-6.0932e-07
-1.92825e-06
2.81748e-06
1.9448e-06
9.30746e-08
-2.41874e-06
-1.60713e-06
-4.95644e-05
4.92305e-05
-4.92468e-05
5.39143e-07
4.90257e-05
-1.60587e-06
5.41486e-07
1.79616e-07
-5.16022e-05
-5.75478e-07
5.13848e-05
7.0469e-07
-5.1402e-05
-2.69388e-07
4.01093e-08
5.11913e-05
6.19571e-07
1.80109e-07
-5.54791e-07
6.64563e-07
-2.51135e-07
3.98672e-08
5.82842e-07
1.31569e-07
-4.85499e-05
4.8382e-05
-4.83569e-05
3.93185e-08
4.81798e-05
1.31953e-07
3.91261e-08
2.09396e-11
-5.13528e-05
-2.43557e-07
5.11374e-05
4.99108e-07
-5.13528e-05
-2.43552e-07
-4.00662e-08
5.11373e-05
4.99101e-07
2.06293e-11
-2.28222e-07
4.65707e-07
-2.28217e-07
-3.98245e-08
4.657e-07
2.12398e-11
-4.84955e-05
4.82913e-05
-4.84954e-05
-3.92772e-08
4.82912e-05
2.09204e-11
-3.90852e-08
-1.79543e-07
-5.14018e-05
-2.69377e-07
5.11911e-05
6.19529e-07
-5.16019e-05
-5.75485e-07
-9.14608e-08
5.13845e-05
7.04763e-07
-1.80036e-07
-2.51125e-07
5.828e-07
-5.54796e-07
-9.30755e-08
6.64636e-07
-1.31527e-07
-4.83568e-05
4.81796e-05
-4.85498e-05
-5.39108e-07
4.83819e-05
-1.3191e-07
-5.4145e-07
6.11621e-07
-5.19411e-05
1.92467e-06
5.16924e-05
-2.37898e-06
-5.2118e-05
-1.9405e-06
5.1825e-05
2.84508e-06
6.09042e-07
1.94431e-06
-2.41799e-06
-1.92768e-06
2.81659e-06
1.60666e-06
-4.92464e-05
4.90253e-05
-4.9564e-05
4.92302e-05
1.60539e-06
-6.03654e-07
-5.15205e-05
-1.92798e-06
5.12001e-05
2.8521e-06
-5.1431e-05
1.84303e-06
8.68996e-08
5.11476e-05
-2.25017e-06
-6.01958e-07
-1.91255e-06
2.81927e-06
1.8637e-06
8.82285e-08
-2.29213e-06
-1.57657e-06
-4.88943e-05
4.85429e-05
-4.87867e-05
5.2427e-07
4.85289e-05
-1.57634e-06
5.26377e-07
1.74779e-07
-5.11512e-05
-6.06865e-07
5.08958e-05
7.74348e-07
-5.09649e-05
-3.03034e-07
3.95753e-08
5.07176e-05
6.8551e-07
1.75469e-07
-5.85656e-07
7.32039e-07
-2.83107e-07
3.94815e-08
6.455e-07
1.2808e-07
-4.81942e-05
4.79835e-05
-4.79865e-05
3.87286e-08
4.77729e-05
1.28559e-07
3.86687e-08
2.10022e-11
-5.09074e-05
-2.72881e-07
5.06576e-05
5.6227e-07
-5.09073e-05
-2.72876e-07
-3.95323e-08
5.06575e-05
5.62262e-07
2.07817e-11
-2.5515e-07
5.24572e-07
-2.55145e-07
-3.94388e-08
5.24565e-07
2.13212e-11
-4.80748e-05
4.78406e-05
-4.80747e-05
-3.86876e-08
4.78405e-05
2.10918e-11
-3.86279e-08
-1.74708e-07
-5.09647e-05
-3.03023e-07
5.07175e-05
6.85468e-07
-5.11509e-05
-6.06869e-07
-8.69019e-08
5.08956e-05
7.74415e-07
-1.75398e-07
-2.83097e-07
6.45458e-07
-5.85659e-07
-8.82303e-08
7.32106e-07
-1.28039e-07
-4.79864e-05
4.77728e-05
-4.8194e-05
-5.24239e-07
4.79834e-05
-1.28518e-07
-5.26344e-07
6.03381e-07
-5.14306e-05
1.84255e-06
5.11472e-05
-2.24944e-06
-5.15203e-05
-1.92747e-06
5.11998e-05
2.85127e-06
6.01684e-07
1.86322e-06
-2.2914e-06
-1.91199e-06
2.8184e-06
1.57611e-06
-4.87863e-05
4.85285e-05
-4.88941e-05
4.85427e-05
1.57587e-06
-5.9418e-07
-5.08659e-05
-1.9204e-06
5.05135e-05
2.86695e-06
-5.08504e-05
1.75999e-06
8.29645e-08
5.053e-05
-2.11675e-06
-5.93139e-07
-1.90247e-06
2.82978e-06
1.78208e-06
8.40321e-08
-2.16209e-06
-1.54498e-06
-4.8186e-05
4.78105e-05
-4.82534e-05
5.1015e-07
4.79582e-05
-1.54554e-06
5.12039e-07
1.69775e-07
-5.06237e-05
-6.39139e-07
5.03284e-05
8.47588e-07
-5.04537e-05
-3.39379e-07
3.88104e-08
5.01671e-05
7.56906e-07
1.70582e-07
-6.17099e-07
8.02696e-07
-3.17761e-07
3.88304e-08
7.13482e-07
1.24537e-07
-4.77534e-05
4.74999e-05
-4.75422e-05
3.79373e-08
4.72894e-05
1.2507e-07
3.79776e-08
2.0914e-11
-5.03919e-05
-3.06297e-07
5.01042e-05
6.32708e-07
-5.03918e-05
-3.06292e-07
-3.87679e-08
5.01042e-05
6.32701e-07
2.07634e-11
-2.8624e-07
5.90753e-07
-2.86235e-07
-3.87881e-08
5.90746e-07
2.12546e-11
-4.75923e-05
4.73239e-05
-4.75922e-05
-3.78967e-08
4.73239e-05
2.10927e-11
-3.79372e-08
-1.69706e-07
-5.04535e-05
-3.39368e-07
5.0167e-05
7.56864e-07
-5.06234e-05
-6.39141e-07
-8.29674e-08
5.03282e-05
8.4765e-07
-1.70513e-07
-3.1775e-07
7.1344e-07
-6.17099e-07
-8.40347e-08
8.02758e-07
-1.24497e-07
-4.75421e-05
4.72893e-05
-4.77533e-05
-5.10121e-07
4.74997e-05
-1.2503e-07
-5.12009e-07
5.93913e-07
-5.08501e-05
1.75953e-06
5.05297e-05
-2.11605e-06
-5.08657e-05
-1.91991e-06
5.05134e-05
2.86614e-06
5.92871e-07
1.78162e-06
-2.16139e-06
-1.90193e-06
2.82894e-06
1.54453e-06
-4.8253e-05
4.79579e-05
-4.81859e-05
4.78105e-05
1.54509e-06
-5.83727e-07
-5.01457e-05
-1.91742e-06
4.97573e-05
2.88955e-06
-5.01951e-05
1.67524e-06
7.95692e-08
4.98352e-05
-1.9786e-06
-5.83075e-07
-1.89679e-06
2.84763e-06
1.69856e-06
8.03892e-08
-2.0271e-06
-1.51244e-06
-4.74271e-05
4.70221e-05
-4.76452e-05
4.96614e-07
4.73114e-05
-1.51335e-06
4.98222e-07
1.64688e-07
-5.00159e-05
-6.72625e-07
4.96786e-05
9.24737e-07
-4.9863e-05
-3.78316e-07
3.78682e-08
4.95345e-05
8.33641e-07
1.6553e-07
-6.49439e-07
8.76871e-07
-3.54942e-07
3.79684e-08
7.86614e-07
1.20972e-07
-4.72271e-05
4.69302e-05
-4.70189e-05
3.69934e-08
4.67245e-05
1.21513e-07
3.71025e-08
2.07191e-11
-4.97996e-05
-3.43492e-07
4.94709e-05
7.09987e-07
-4.97995e-05
-3.43487e-07
-3.78265e-08
4.94709e-05
7.0998e-07
2.06112e-11
-3.21144e-07
6.63755e-07
-3.21139e-07
-3.79267e-08
6.63748e-07
2.1082e-11
-4.70399e-05
4.67334e-05
-4.70398e-05
-3.69535e-08
4.67333e-05
2.09624e-11
-3.70627e-08
-1.64621e-07
-4.98628e-05
-3.78305e-07
4.95343e-05
8.33599e-07
-5.00156e-05
-6.72626e-07
-7.95723e-08
4.96784e-05
9.24795e-07
-1.65463e-07
-3.5493e-07
7.86572e-07
-6.49438e-07
-8.03922e-08
8.76928e-07
-1.20934e-07
-4.70188e-05
4.67245e-05
-4.7227e-05
-4.96587e-07
4.693e-05
-1.21475e-07
-4.98195e-07
5.83467e-07
-5.01948e-05
1.6748e-06
4.98349e-05
-1.97792e-06
-5.01457e-05
-1.91694e-06
4.97573e-05
2.88876e-06
5.82814e-07
1.69812e-06
-2.02642e-06
-1.89627e-06
2.84681e-06
1.51201e-06
-4.76449e-05
4.73111e-05
-4.74271e-05
4.70222e-05
1.51291e-06
-5.7272e-07
-4.93519e-05
-1.91921e-06
4.89236e-05
2.92021e-06
-4.94597e-05
1.58964e-06
7.66723e-08
4.90577e-05
-1.83706e-06
-5.72553e-07
-1.89675e-06
2.87474e-06
1.61464e-06
7.72988e-08
-1.88899e-06
-1.47964e-06
-4.66067e-05
4.61671e-05
-4.69595e-05
4.8373e-07
4.65857e-05
-1.48131e-06
4.85262e-07
1.59632e-07
-4.93233e-05
-7.0771e-07
4.89419e-05
1.00621e-06
-4.91874e-05
-4.19894e-07
3.68061e-08
4.88143e-05
9.15883e-07
1.60539e-07
-6.83485e-07
9.55565e-07
-3.94879e-07
3.69798e-08
8.65496e-07
1.17455e-07
-4.66139e-05
4.62725e-05
-4.64116e-05
3.59494e-08
4.60732e-05
1.18032e-07
3.61223e-08
2.04432e-11
-4.9124e-05
-3.84306e-07
4.87511e-05
7.93952e-07
-4.91239e-05
-3.84301e-07
-3.67652e-08
4.87511e-05
7.93945e-07
2.03833e-11
-3.5986e-07
7.43769e-07
-3.59855e-07
-3.69388e-08
7.43762e-07
2.08269e-11
-4.64096e-05
4.60612e-05
-4.64096e-05
-3.59102e-08
4.60612e-05
2.07538e-11
-3.60831e-08
-1.59567e-07
-4.91873e-05
-4.19882e-07
4.88141e-05
9.15842e-07
-4.93231e-05
-7.0771e-07
-7.66753e-08
4.89417e-05
1.00626e-06
-1.60475e-07
-3.94867e-07
8.65455e-07
-6.83482e-07
-7.73019e-08
9.55618e-07
-1.17418e-07
-4.64115e-05
4.60732e-05
-4.66138e-05
-4.83706e-07
4.62724e-05
-1.17994e-07
-4.85237e-07
5.72467e-07
-4.94594e-05
1.58922e-06
4.90575e-05
-1.83641e-06
-4.93519e-05
-1.91875e-06
4.89237e-05
2.91945e-06
5.72299e-07
1.61422e-06
-1.88835e-06
-1.89625e-06
2.87395e-06
1.47922e-06
-4.69592e-05
4.65855e-05
-4.66068e-05
4.61673e-05
1.48088e-06
-5.61285e-07
-4.84769e-05
-1.9253e-06
4.80052e-05
2.95835e-06
-4.86394e-05
1.50249e-06
7.42034e-08
4.81928e-05
-1.69139e-06
-5.61402e-07
-1.90064e-06
2.90874e-06
1.52918e-06
7.46477e-08
-1.74693e-06
-1.44663e-06
-4.57151e-05
4.52365e-05
-4.61935e-05
4.71392e-07
4.5778e-05
-1.44865e-06
4.72765e-07
1.54635e-07
-4.85416e-05
-7.44605e-07
4.81136e-05
1.09216e-06
-4.84217e-05
-4.64015e-07
3.5656e-08
4.80012e-05
1.00344e-06
1.55552e-07
-7.19062e-07
1.03838e-06
-4.373e-07
3.58794e-08
9.49545e-07
1.13993e-07
-4.59116e-05
4.55244e-05
-4.57154e-05
3.4833e-08
4.53306e-05
1.14571e-07
3.50481e-08
2.00598e-11