/*--------------------------------*- C++ -*----------------------------------*\
  =========                 |
  \\      /  F ield         | OpenFOAM: The Open Source CFD Toolbox
   \\    /   O peration     | Website:  https://openfoam.org
    \\  /    A nd           | Version:  9
     \\/     M anipulation  |
\*---------------------------------------------------------------------------*/
FoamFile
{
    format      ascii;
    class       volScalarField;
    location    "3";
    object      epsilon;
}
// * * * * * * * * * * * * * * * * * * * * * * * * * * * * * * * * * * * * * //

dimensions      [0 2 -3 0 0 0 0];

internalField   nonuniform List<scalar> 
4545
(
14.3348
20.0383
17.4911
20.0382
14.3347
28.5059
28.8146
25.8422
28.8146
28.5059
34.9911
33.8239
30.5076
33.824
34.9913
38.4954
36.9633
33.544
36.9636
38.4958
40.7176
39.0664
35.6105
39.0669
40.7181
42.2311
40.5242
37.0551
40.5263
42.2356
43.2703
41.5409
38.073
41.5438
43.2731
43.9783
42.2405
38.7839
42.2435
43.9779
44.4547
42.7061
39.2674
42.7108
44.4449
44.7376
42.9932
39.5763
42.9991
44.729
44.8907
43.1427
39.7495
43.146
44.8816
44.9429
43.1846
39.8155
43.1889
44.9415
44.9012
43.1434
39.8008
43.1536
44.9343
44.7721
43.0233
39.7125
43.0356
44.8321
44.6193
42.8378
39.5472
42.8379
44.6358
44.4198
42.5958
39.3261
42.5812
44.3713
44.1138
42.2846
39.0478
42.267
44.0429
43.7371
41.911
38.7149
41.901
43.6896
43.3027
41.4843
38.3308
41.4831
43.2963
42.8368
41.0045
37.8951
41.0098
42.8478
42.3187
40.4712
37.4062
40.4794
42.3329
41.7329
39.8849
36.8635
39.8952
41.7731
41.0973
39.2393
36.2631
39.2497
41.1515
40.4302
38.5316
35.6027
38.538
40.4409
39.693
37.7629
34.883
37.7626
39.6662
38.8825
36.9294
34.1039
36.9258
38.8652
38.0049
36.0265
33.2582
36.0232
38.0081
37.0441
35.0502
32.3661
35.0509
37.0464
36.0208
34.0096
31.4258
34.0161
36.0471
34.9596
32.9093
30.4285
32.9166
34.9948
33.8234
31.7449
29.3755
31.7543
33.8536
32.6219
30.5242
28.2702
30.5328
32.6626
31.399
29.2555
27.1158
29.2576
31.4182
30.1138
27.9367
25.9148
27.9355
30.1177
28.7719
26.5708
24.6691
26.5694
28.7689
27.3746
25.1635
23.38
25.1627
27.3731
25.9364
23.7186
22.0472
23.7181
25.9357
24.4652
22.2302
20.6662
22.23
24.4649
22.9433
20.6665
19.2294
20.6664
22.9431
17.8981
17.5228
14.8332
17.5231
17.8985
23.8438
21.8383
19.0323
21.8386
23.8444
27.2244
24.7341
21.7539
24.7345
27.225
29.1432
26.4633
23.4643
26.4637
29.1439
30.2798
27.5382
24.5606
27.5388
30.2809
30.9807
28.2141
25.272
28.2155
30.9809
31.4048
28.6314
25.7293
28.6332
31.404
31.6349
28.8721
26.0117
28.8752
31.6452
31.7438
28.9903
26.1698
28.9936
31.7561
31.7799
29.0198
26.2365
29.022
31.7817
31.7453
28.9851
26.2352
28.9859
31.7383
31.6578
28.8986
26.1841
28.9006
31.6611
31.526
28.7682
26.0881
28.7757
31.5522
31.3626
28.6044
25.9566
28.6135
31.3968
31.2055
28.4172
25.794
28.4173
31.2023
31.0119
28.2034
25.604
28.1922
30.9695
30.7669
27.9573
25.3873
27.943
30.7205
30.4736
27.682
25.1463
27.6717
30.4368
30.15
27.3835
24.8831
27.3817
30.1563
29.8464
27.0678
24.5982
27.0713
29.8702
29.51
26.7302
24.291
26.7347
29.5207
29.1343
26.3691
23.9609
26.3768
29.1617
28.7375
25.9854
23.607
25.9941
28.7756
28.3205
25.5796
23.2281
25.5833
28.3433
27.9011
25.1514
22.8246
25.1475
27.8807
27.4476
24.6966
22.3963
24.6906
27.4135
26.9414
24.2126
21.9419
24.209
26.9216
26.3982
23.7001
21.4638
23.6983
26.3777
25.8244
23.1619
20.9633
23.1643
25.8147
25.2293
22.6008
20.4383
22.6047
25.2148
24.6021
22.0146
19.8877
22.0197
24.5992
23.9356
21.4039
19.3127
21.4107
23.9529
23.2632
20.7739
18.7144
20.7781
23.2772
22.5675
20.121
18.0922
20.1226
22.5779
21.8364
19.4434
17.4455
19.4433
21.8387
21.0711
18.7401
16.7729
18.7398
21.0708
20.2773
18.0095
16.0719
18.0094
20.277
19.4627
17.2425
15.3373
17.2425
19.4628
18.6049
16.4023
14.5627
16.4025
18.6051
19.1414
18.0944
16.0889
18.0947
19.1421
22.8597
21.1769
19.2713
21.1773
22.8604
25.1028
23.3247
21.4095
23.3251
25.1035
26.4706
24.6578
22.7788
24.6582
26.4713
27.2883
25.4816
23.6471
25.4822
27.2893
27.7714
25.979
24.1894
25.9799
27.7729
28.0381
26.262
24.5146
26.2634
28.0401
28.1595
26.3998
24.6912
26.4017
28.1626
28.182
26.4364
24.7633
26.4386
28.1854
28.1393
26.4038
24.7611
26.4058
28.1418
28.044
26.3178
24.7051
26.3191
28.0455
27.9102
26.1905
24.6045
26.1919
27.9125
27.7456
26.0315
24.471
26.0336
27.751
27.558
25.8476
24.3103
25.8495
27.5642
27.3542
25.643
24.1266
25.6429
27.3546
27.132
25.4193
23.9228
25.4167
27.1251
26.8887
25.177
23.7004
25.1734
26.8793
26.6253
24.9167
23.4607
24.914
26.618
26.3451
24.6406
23.205
24.6398
26.3434
26.0513
24.3495
22.9335
24.3503
26.0534
25.7407
24.043
22.6459
24.0445
25.7437
25.4115
23.7206
22.3419
23.7224
25.4165
25.0638
23.3814
22.0208
23.383
25.0695
24.6974
23.0248
21.682
23.0256
24.6999
24.3115
22.6508
21.3255
22.6501
24.3089
23.903
22.2584
20.9509
22.2568
23.8986
23.47
21.8466
20.5577
21.8453
23.467
23.013
21.4154
20.1459
21.415
23.0115
22.5339
20.9657
19.7161
20.9663
22.5348
22.0347
20.4982
19.2683
20.4995
22.037
21.5154
20.0134
18.8027
20.0152
21.519
20.9768
19.5121
18.3198
19.5139
20.9814
20.4222
18.9951
17.82
18.9962
20.4257
19.851
18.4624
17.3033
18.4629
19.8528
19.2622
17.9135
16.7692
17.9137
19.2628
18.6568
17.348
16.2173
17.3481
18.657
18.037
16.765
15.6463
16.7651
18.0373
17.4083
16.16
15.055
16.1603
17.4087
16.7554
15.5155
14.4443
15.5158
16.7559
19.5908
18.5674
17.0064
18.5678
19.5915
22.488
21.0857
19.6654
21.0862
22.4887
24.244
22.8446
21.4621
22.845
24.2447
25.3541
23.9639
22.6314
23.9643
25.3548
26.0286
24.6616
23.3762
24.6621
26.0294
26.4214
25.0775
23.8346
25.0781
26.4225
26.626
25.3032
24.098
25.304
26.6274
26.7025
25.3982
24.2264
25.3992
26.7042
26.6911
25.4017
24.2595
25.4028
26.6929
26.6207
25.3438
24.227
25.3448
26.6223
26.5018
25.235
24.1422
25.2358
26.5032
26.3495
25.0904
24.0188
25.0912
26.3508
26.1709
24.9181
23.8661
24.919
26.1727
25.9723
24.7241
23.69
24.7249
25.9741
25.7573
24.512
23.4942
24.5122
25.7578
25.5274
24.2841
23.2816
24.2836
25.5263
25.2832
24.0418
23.0539
24.0408
25.2812
25.025
23.7858
22.8124
23.7851
25.0233
24.7536
23.5171
22.5577
23.5168
24.753
24.4691
23.2358
22.29
23.236
24.4694
24.1708
22.9418
22.0093
22.9423
24.1717
23.858
22.6347
21.7153
22.6353
23.8592
23.5299
22.3141
21.4077
22.3146
23.5311
23.1858
21.9795
21.0862
21.9797
23.1864
22.8253
21.6308
20.7506
21.6306
22.8249
22.4475
21.2675
20.4007
21.2671
22.4468
22.0524
20.8896
20.0364
20.8893
22.0518
21.64
20.4971
19.6577
20.4971
21.64
21.2112
20.0905
19.2649
20.0908
21.2119
20.7669
19.6702
18.8583
19.6708
20.7681
20.3079
19.2367
18.4379
19.2374
20.3094
19.8352
18.7904
18.0043
18.7912
19.8368
19.3499
18.332
17.5575
18.3326
19.3512
18.8527
17.8619
17.0979
17.8623
18.8536
18.3444
17.3805
16.6259
17.3808
18.3451
17.8266
16.8885
16.1417
16.8889
17.8272
17.3029
16.3872
15.6462
16.3875
17.3035
16.7811
15.8766
15.1402
15.877
16.7817
16.2563
15.3499
14.6304
15.3503
16.257
19.8027
18.8631
17.5787
18.8635
19.8034
22.3081
21.0796
19.9296
21.08
22.3088
23.8187
22.6191
21.5172
22.6195
23.8194
24.7898
23.6111
22.5594
23.6115
24.7905
25.3869
24.2344
23.2268
24.2348
25.3876
25.7338
24.605
23.6357
24.6054
25.7346
25.9091
24.801
23.8648
24.8015
25.91
25.9653
24.875
23.9678
24.8756
25.9663
25.9396
24.8634
23.981
24.8641
25.9407
25.856
24.7924
23.9321
24.793
25.8571
25.7267
24.6727
23.8323
24.6733
25.7277
25.5654
24.5193
23.6965
24.5198
25.5663
25.3794
24.3397
23.5331
24.3403
25.3804
25.1746
24.1399
23.3479
24.1404
25.1756
24.9543
23.9233
23.1449
23.9237
24.955
24.7207
23.6927
22.9268
23.6928
24.7209
24.475
23.4497
22.6956
23.4496
24.4749
24.2178
23.1951
22.4524
23.1951
24.2177
23.9497
22.9299
22.1981
22.9299
23.9498
23.6704
22.654
21.9329
22.6542
23.6707
23.3797
22.3676
21.6571
22.3679
23.3801
23.0773
22.0706
21.3705
22.0709
23.0778
22.7627
21.7629
21.0731
21.7631
22.7632
22.4356
21.4442
20.7649
21.4444
22.436
22.096
21.1147
20.4458
21.1148
22.0962
21.7437
20.7743
20.116
20.7743
21.7438
21.3791
20.4231
19.7755
20.4232
21.3792
21.0023
20.0614
19.4244
20.0616
21.0027
20.6141
19.6894
19.0628
19.6897
20.6146
20.215
19.3075
18.6909
19.3079
20.2157
19.8056
18.9158
18.3088
18.9162
19.8064
19.3865
18.5146
17.9166
18.5151
19.3874
18.9582
18.1043
17.5144
18.1047
18.9591
18.5215
17.6853
17.1023
17.6857
18.5223
18.0775
17.2584
16.6807
17.2588
18.0783
17.6283
16.8251
16.2508
16.8256
17.6291
17.1782
16.3877
15.815
16.3881
17.179
16.7364
15.948
15.3772
15.9484
16.7371
16.3019
15.5042
14.9446
15.5046
16.3027
19.9249
19.0487
17.9359
19.0491
19.9255
22.2116
21.0893
20.0974
21.0897
22.2122
23.5856
22.4993
21.5556
22.4997
23.5861
24.4762
23.4135
22.517
23.4138
24.4767
25.0277
23.9909
23.135
23.9912
25.0283
25.3483
24.3341
23.5129
24.3344
25.3489
25.5076
24.513
23.7216
24.5134
25.5083
25.5532
24.5754
23.8098
24.5758
25.5539
25.5201
24.5557
23.8117
24.5562
25.5209
25.4292
24.4769
23.753
24.4774
25.43
25.2937
24.351
23.6443
24.3515
25.2945
25.1266
24.1918
23.5007
24.1923
25.1274
24.9353
24.0072
23.3302
24.0076
24.9361
24.7257
23.8029
23.1387
23.8034
24.7265
24.5011
23.5827
22.9303
23.5831
24.5018
24.2641
23.3495
22.708
23.3498
24.2647
24.0164
23.1051
22.4738
23.1053
24.0169
23.7589
22.8507
22.2293
22.8509
23.7592
23.4922
22.5873
21.9752
22.5875
23.4926
23.2165
22.3152
21.7123
22.3154
23.2169
22.9319
22.0349
21.4409
22.0351
22.9323
22.6385
21.7465
21.1614
21.7468
22.639
22.3364
21.4504
20.8741
21.4507
22.3369
22.0257
21.1467
20.5791
21.1469
22.0262
21.7067
20.8356
20.2767
20.8359
21.7071
21.3796
20.5176
19.9672
20.5178
21.38
21.045
20.1927
19.6509
20.193
21.0454
20.7032
19.8614
19.3278
19.8617
20.7038
20.3548
19.5238
18.998
19.5241
20.3554
20.0001
19.1799
18.6615
19.1803
20.0007
19.6392
18.8298
18.3181
18.8302
19.64
19.2724
18.4732
17.9672
18.4737
19.2732
18.8995
18.1101
17.6088
18.1105
18.9003
18.5205
17.7401
17.243
17.7405
18.5214
18.1357
17.3643
16.8704
17.3647
18.1365
17.7475
16.9845
16.4925
16.9849
17.7483
17.3611
16.6039
16.1119
16.6043
17.362
16.9872
16.2267
15.7328
16.2271
16.988
16.6284
15.8526
15.3636
15.853
16.6292
20.0005
19.1659
18.1605
19.1662
20.001
22.1553
21.099
20.2032
21.0993
22.1558
23.4491
22.4307
21.5811
22.431
23.4496
24.2916
23.297
22.4916
23.2973
24.292
24.8154
23.8457
23.078
23.8459
24.8158
25.1197
24.1716
23.4361
24.1719
25.1202
25.2691
24.3398
23.6317
24.3401
25.2696
25.3079
24.3948
23.7105
24.3952
25.3085
25.2697
24.3697
23.7052
24.3701
25.2703
25.1734
24.2854
23.6393
24.2857
25.174
25.0329
24.1545
23.5243
24.1549
25.0335
24.8606
23.9905
23.3746
23.9909
24.8613
24.6642
23.8012
23.1982
23.8016
24.6649
24.4496
23.5925
23.0013
23.5929
24.4503
24.2205
23.3685
22.7881
23.3688
24.2211
23.9797
23.1321
22.5618
23.1324
23.9803
23.7292
22.8856
22.3247
22.8859
23.7298
23.4704
22.6304
22.0785
22.6307
23.4709
23.2043
22.368
21.8246
22.3683
23.2048
22.9314
22.0989
21.5638
22.0992
22.9319
22.6525
21.824
21.2969
21.8243
22.653
22.368
21.544
21.0247
21.5443
22.3685
22.0785
21.2594
20.7478
21.2597
22.079
21.7846
20.9708
20.4667
20.9711
21.7851
21.4868
20.6788
20.182
20.6791
21.4874
21.186
20.384
19.8943
20.3843
21.1865
20.8827
20.0868
19.6038
20.0871
20.8832
20.5774
19.7875
19.3107
19.7878
20.578
20.2705
19.4862
19.0151
19.4865
20.2711
19.962
19.1826
18.7164
19.1829
19.9627
19.6514
18.876
18.4142
18.8764
19.6522
19.3381
18.5661
18.108
18.5665
19.3389
19.0217
18.2524
17.797
18.2529
19.0225
18.702
17.9348
17.4809
17.9353
18.7028
18.3796
17.6136
17.1598
17.614
18.3804
18.0559
17.29
16.8347
17.2904
18.0567
17.7354
16.9666
16.5081
16.967
17.7362
17.4277
16.6472
16.1841
16.6476
17.4285
17.1361
16.3326
15.8705
16.333
17.1369
20.0461
19.2374
18.2976
19.2377
20.0466
22.121
21.1052
20.2674
21.1055
22.1215
23.3676
22.3901
21.5965
22.3903
23.3681
24.1814
23.2274
22.4759
23.2277
24.1818
24.688
23.7582
23.0425
23.7585
24.6884
24.9817
24.0731
23.3877
24.0733
24.9821
25.124
24.2338
23.5744
24.234
25.1245
25.1574
24.2831
23.6463
24.2835
25.158
25.1146
24.2534
23.6353
24.2537
25.1151
25.0129
24.1639
23.5634
24.1643
25.0135
24.8671
24.0282
23.4427
24.0285
24.8677
24.6892
23.8591
23.2873
23.8594
24.6898
24.487
23.6646
23.1052
23.665
24.4876
24.2667
23.451
22.9028
23.4514
24.2673
24.0322
23.2223
22.6845
23.2227
24.0328
23.7867
22.982
22.4538
22.9823
23.7873
23.5326
22.7325
22.2134
22.7328
23.5332
23.2717
22.4758
21.9652
22.4761
23.2722
23.0053
22.2135
21.711
22.2138
23.0059
22.7347
21.9467
21.452
21.947
22.7353
22.4609
21.6767
21.1894
21.677
22.4615
22.185
21.4046
20.9245
21.4049
22.1856
21.9081
21.1314
20.6582
21.1317
21.9087
21.6312
20.8582
20.3915
20.8585
21.6318
21.3554
20.5858
20.1254
20.5861
21.3559
21.0816
20.3151
19.8605
20.3155
21.0822
20.8109
20.0469
19.5975
20.0472
20.8115
20.5438
19.7814
19.3366
19.7817
20.5444
20.2805
19.5185
19.0776
19.5189
20.2812
20.0208
19.2581
18.8203
19.2584
20.0214
19.7641
18.9993
18.5635
18.9996
19.7647
19.5095
18.741
18.3063
18.7414
19.5102
19.2555
18.4819
18.0471
18.4823
19.2562
19.0007
18.221
17.785
18.2214
19.0015
18.7446
17.9578
17.5192
17.9582
18.7454
18.4879
17.6928
17.2502
17.6932
18.4887
18.2344
17.4281
16.9794
17.4285
18.2352
17.9932
17.1666
16.7104
17.1671
17.9941
17.7675
16.9091
16.4501
16.9095
17.7683
20.0699
19.2751
18.3708
19.2754
20.0704
22.1013
21.1076
20.301
21.1078
22.1018
23.3224
22.3671
21.6035
22.3673
23.3228
24.1202
23.1883
22.4655
23.1886
24.1206
24.6164
23.7086
23.0204
23.7088
24.6168
24.9029
24.016
23.3574
24.0163
24.9033
25.0395
24.171
23.5377
24.1713
25.04
25.0676
24.2153
23.604
24.2156
25.0681
25.0197
24.1808
23.5878
24.1812
25.0202
24.912
24.0859
23.5101
24.0863
24.9126
24.76
23.9446
23.3836
23.945
24.7606
24.5755
23.7697
23.2221
23.7701
24.5761
24.3665
23.5693
23.0339
23.5697
24.3672
24.1395
23.3498
22.8255
23.3502
24.1401
23.8986
23.1156
22.6016
23.1159
23.8992
23.6473
22.8703
22.3659
22.8707
23.6479
23.3885
22.6169
22.1214
22.6172
23.3891
23.1243
22.3576
21.8705
22.3579
23.1249
22.8567
22.0943
21.6152
22.0946
22.8573
22.5873
21.8288
21.3573
21.8291
22.5878
22.3176
21.5628
21.0984
21.5631
22.3182
22.0495
21.2977
20.8401
21.2981
22.05
21.7844
21.0353
20.584
21.0356
21.7849
21.5239
20.7768
20.3315
20.7771
21.5244
21.2697
20.5238
20.0838
20.5242
21.2702
21.0231
20.2775
19.8423
20.2778
21.0237
20.7855
20.0389
19.6076
20.0392
20.7861
20.5578
19.8084
19.3804
19.8087
20.5583
20.3402
19.5864
19.1605
19.5867
20.3407
20.1326
19.3723
18.9475
19.3726
20.1332
19.9341
19.1649
18.7401
19.1653
19.9347
19.7428
18.9628
18.5366
18.9631
19.7435
19.5568
18.7637
18.3348
18.764
19.5574
19.3734
18.5656
18.1327
18.566
19.3741
19.191
18.3669
17.9286
18.3673
19.1917
19.0089
18.1669
17.7214
18.1673
19.0096
18.8294
17.9662
17.5114
17.9665
18.8302
18.6605
17.7667
17.3009
17.7671
18.6612
18.5044
17.568
17.0955
17.5684
18.5052
20.0759
19.2851
18.3917
19.2853
20.0764
22.0933
21.1064
20.3094
21.1067
22.0937
23.3057
22.3574
21.6031
22.3576
23.3061
24.097
23.1724
22.4586
23.1727
24.0974
24.588
23.6877
23.0083
23.6879
24.5884
24.8696
23.9906
23.3406
23.9908
24.8701
25.0012
24.141
23.5162
24.1413
25.0017
25.0239
24.1805
23.5775
24.1808
25.0244
24.9702
24.1409
23.5563
24.1412
24.9707
24.8557
24.0399
23.4726
24.0403
24.8562
24.6964
23.8923
23.3399
23.8927
24.697
24.5043
23.7108
23.1719
23.7111
24.5049
24.2874
23.5035
22.9771
23.5038
24.288
24.0524
23.2771
22.7621
23.2775
24.053
23.8038
23.0362
22.5317
23.0366
23.8045
23.5455
22.7849
22.2902
22.7852
23.5461
23.2806
22.5262
22.0407
22.5266
23.2812
23.0117
22.2629
21.786
22.2632
23.0123
22.7412
21.9973
21.5284
21.9976
22.7418
22.4713
21.7316
21.2703
21.7319
22.4718
22.2041
21.4679
21.0138
21.4682
22.2046
21.9418
21.2084
20.7609
21.2087
21.9423
21.6867
20.955
20.5137
20.9553
21.6872
21.441
20.7099
20.274
20.7102
21.4415
21.2068
20.4749
20.0439
20.4752
21.2073
20.9863
20.2519
19.8248
20.2522
20.9868
20.7811
20.0423
19.6183
20.0426
20.7816
20.5926
19.8471
19.4251
19.8474
20.5931
20.4217
19.667
19.2457
19.6672
20.4222
20.2688
19.5016
19.0795
19.5019
20.2693
20.1326
19.3497
18.9253
19.35
20.1331
20.0108
19.209
18.7808
19.2093
20.0113
19.9005
19.0769
18.6433
19.0772
19.9011
19.7983
18.95
18.5093
18.9504
19.7989
19.7006
18.8253
18.3756
18.8256
19.7012
19.6049
18.6999
18.2394
18.7003
19.6055
19.5112
18.5727
18.0989
18.573
19.5119
19.4254
18.4433
17.9543
18.4436
19.4262
19.3483
18.3095
17.809
18.3099
19.3491
20.0652
19.2689
18.3637
19.2692
20.0656
22.0964
21.1019
20.2945
21.1021
22.0968
23.3154
22.3599
21.5959
22.3602
23.3158
24.1092
23.178
22.4549
23.1783
24.1097
24.5997
23.6934
23.0053
23.6937
24.6001
24.8785
23.9943
23.3361
23.9946
24.879
25.0057
24.1412
23.5087
24.1415
25.0062
25.0227
24.176
23.5658
24.1763
25.0232
24.9628
24.1311
23.5398
24.1315
24.9633
24.8406
24.0236
23.45
24.0239
24.8412
24.6733
23.8691
23.3109
23.8694
24.6739
24.4726
23.6802
23.1361
23.6805
24.4732
24.2468
23.4652
22.9342
23.4656
24.2474
24.0028
23.2311
22.7119
23.2314
24.0034
23.7453
22.9825
22.4744
22.9829
23.7459
23.4785
22.7239
22.2262
22.7243
23.4791
23.2059
22.4587
21.9706
22.459
23.2065
22.9305
22.1899
21.7109
22.1902
22.931
22.6551
21.9202
21.4498
21.9205
22.6556
22.3824
21.6523
21.1899
21.6526
22.3829
22.1152
21.3889
20.9338
21.3891
22.1157
21.8561
21.1324
20.6842
21.1327
21.8566
21.6081
20.8856
20.4435
20.8858
21.6086
21.374
20.6511
20.2144
20.6513
21.3745
21.1569
20.4315
19.9993
20.4317
21.1573
20.9594
20.2293
19.8007
20.2295
20.9598
20.7843
20.0467
19.6205
20.0469
20.7847
20.6338
19.8856
19.4604
19.8858
20.6342
20.5094
19.7472
19.3215
19.7474
20.5098
20.4125
19.6319
19.2038
19.6321
20.413
20.3422
19.5387
19.1062
19.5389
20.3427
20.2965
19.4655
19.0265
19.4657
20.297
20.2722
19.4088
18.9613
19.4091
20.2726
20.2643
19.3644
18.906
19.3646
20.2648
20.2673
19.3269
18.8555
19.3272
20.2679
20.2761
19.2912
18.8042
19.2915
20.2767
20.2873
19.2526
18.7473
19.2529
20.288
20.303
19.2073
18.6813
19.2077
20.3037
20.3208
19.1497
18.6062
19.15
20.3215
20.0366
19.2247
18.283
19.225
20.0371
22.1118
21.0941
20.2547
21.0944
22.1123
23.3547
22.3766
21.5818
22.3769
23.3551
24.1609
23.2079
22.4557
23.2082
24.1614
24.6563
23.7293
23.0135
23.7296
24.6568
24.935
24.0314
23.3467
24.0318
24.9356
25.0589
24.1763
23.5184
24.1766
25.0594
25.0703
24.2068
23.5723
24.2072
25.0709
25.0039
24.1568
23.5421
24.1572
25.0045
24.8736
24.0426
23.4467
24.0429
24.8742
24.6976
23.8809
23.3013
23.8812
24.6982
24.4877
23.6842
23.1196
23.6845
24.4883
24.2523
23.4612
22.9105
23.4615
24.2529
23.9984
23.2187
22.6808
23.219
23.9991
23.7311
22.9618
22.4359
22.9622
23.7317
23.4547
22.6951
22.1803
22.6954
23.4553
23.173
22.4221
21.9179
22.4225
23.1735
22.8893
22.1463
21.652
22.1466
22.8898
22.6069
21.8708
21.3857
21.8711
22.6074
22.3288
21.5984
21.1221
21.5987
22.3293
22.0583
21.3324
20.8642
21.3326
22.0587
21.7987
21.0758
20.615
21.0761
21.7991
21.5536
20.8319
20.3777
20.8322
21.554
21.3266
20.6041
20.1556
20.6043
21.327
21.1216
20.3957
19.9519
20.3959
21.122
20.9425
20.2101
19.7699
20.2103
20.9428
20.793
20.0508
19.6126
20.051
20.7934
20.6769
19.9206
19.4828
19.9208
20.6772
20.5971
19.8219
19.3826
19.8221
20.5974
20.5559
19.7564
19.3133
19.7566
20.5563
20.5544
19.7243
19.2748
19.7245
20.5548
20.5912
19.7245
19.2658
19.7247
20.5915
20.6649
19.753
19.2824
19.7533
20.6653
20.7692
19.8061
19.32
19.8063
20.7696
20.8967
19.8755
19.371
19.8757
20.8971
21.0384
19.9525
19.4262
19.9528
21.0389
21.186
20.0276
19.4759
20.0279
21.1865
21.3349
20.091
19.5108
20.0913
21.3355
21.4762
20.1301
19.5246
20.1304
21.4768
19.9861
19.1462
18.1375
19.1465
19.9867
22.1429
21.0829
20.1844
21.0833
22.1434
23.4323
22.4121
21.5604
22.4125
23.4329
24.2645
23.2704
22.4637
23.2708
24.2651
24.7723
23.8059
23.0377
23.8062
24.7729
25.0551
24.1137
23.3787
24.1141
25.0557
25.1777
24.2591
23.5527
24.2594
25.1783
25.1846
24.2869
23.6057
24.2872
25.1853
25.1122
24.2326
23.5727
24.233
25.1129
24.9742
24.1124
23.4728
24.1128
24.9749
24.7897
23.9439
23.322
23.9442
24.7903
24.5705
23.7398
23.1343
23.7401
24.5712
24.3253
23.5087
22.9185
23.5091
24.326
24.0613
23.2579
22.6817
23.2583
24.062
23.7835
22.9924
22.4295
22.9928
23.7841
23.4964
22.7169
22.1665
22.7173
23.4971
23.2042
22.4353
21.8967
22.4356
23.2048
22.9105
22.1512
21.6237
22.1515
22.911
22.6186
21.8679
21.3509
21.8681
22.6191
22.3322
21.5887
21.0816
21.5889
22.3326
22.0548
21.3171
20.8193
21.3173
22.0551
21.7903
21.0567
20.5674
21.0569
21.7907
21.543
20.8114
20.3297
20.8115
21.5433
21.3172
20.5851
20.1101
20.5852
21.3175
21.1178
20.3821
19.9127
20.3823
21.1181
20.9498
20.2071
19.7417
20.2073
20.9501
20.8188
20.0646
19.6017
20.0648
20.8191
20.7302
19.9593
19.4968
19.9595
20.7304
20.6894
19.8956
19.4311
19.8958
20.6896
20.7008
19.8772
19.4079
19.8773
20.701
20.7676
19.9058
19.4287
19.906
20.7678
20.8946
19.9842
19.495
19.9843
20.8948
21.0801
20.1109
19.6057
20.1111
21.0804
21.3202
20.2808
19.7548
20.281
21.3206
21.6069
20.4854
19.9336
20.4856
21.6072
21.9274
20.7119
20.1291
20.7121
21.9278
22.2658
20.9435
20.3247
20.9438
22.2662
22.6064
21.1601
20.501
21.1603
22.6069
22.9254
21.3359
20.6397
21.3362
22.9259
19.9047
19.02
17.9023
19.0204
19.9054
22.1972
21.0683
20.072
21.0687
22.1978
23.5674
22.4771
21.5298
22.4775
23.5681
24.4461
23.3823
22.4832
23.3827
24.4468
24.9779
23.9437
23.0863
23.9441
24.9786
25.2714
24.2644
23.4431
24.2648
25.2721
25.3968
24.4147
23.6248
24.4151
25.3975
25.4018
24.4428
23.6806
24.4433
25.4026
25.3253
24.3865
23.6477
24.3869
25.3261
25.1811
24.2623
23.546
24.2627
25.1819
24.9893
24.0886
23.3921
24.089
24.99
24.7619
23.8784
23.2002
23.8787
24.7626
24.5076
23.6404
22.9794
23.6408
24.5083
24.2338
23.382
22.7369
23.3824
24.2345
23.9455
23.1083
22.4783
23.1087
23.9462
23.6474
22.8241
22.2085
22.8244
23.648
23.3438
22.5334
21.9314
22.5337
23.3443
23.0383
22.2399
21.651
22.2402
23.0388
22.7349
21.9473
21.3708
21.9476
22.7353
22.437
21.659
21.0943
21.6592
22.4374
22.1489
21.3789
20.8253
21.3791
22.1491
21.8747
21.1109
20.5676
21.111
21.875
21.6193
20.8592
20.3254
20.8593
21.6195
21.3876
20.6286
20.1033
20.6287
21.3878
21.1856
20.4242
19.9062
20.4244
21.1858
21.0195
20.2518
19.7394
20.2519
21.0198
20.8967
20.1174
19.6089
20.1176
20.8969
20.825
20.028
19.5209
20.0281
20.8252
20.813
19.9904
19.482
19.9905
20.8132
20.867
20.0108
19.4979
20.011
20.8672
20.9991
20.0966
19.5745
20.0967
20.9993
21.2184
20.2563
19.7201
20.2564
21.2186
21.5297
20.4919
19.9353
20.492
21.5299
21.9355
20.803
20.2189
20.8032
21.9358
22.4319
21.1835
20.5637
21.1837
22.4322
23.0058
21.6185
20.9541
21.6187
23.0062
23.6333
22.0826
21.3645
22.0828
23.6337
24.2806
22.5383
21.7593
22.5386
24.281
24.8934
22.9344
22.0971
22.9347
24.8939
19.7737
18.8213
17.53
18.8216
19.7743
22.2917
21.0521
19.8955
21.0525
22.2924
23.8012
22.5935
21.4858
22.5939
23.8019
24.7601
23.5769
22.5207
23.5774
24.7609
25.3349
24.1827
23.172
24.1832
25.3357
25.6504
24.5277
23.5569
24.5282
25.6512
25.786
24.6908
23.755
24.6912
25.7868
25.7945
24.725
23.8205
24.7255
25.7953
25.718
24.671
23.793
24.6714
25.7189
25.5714
24.5471
23.6948
24.5474
25.5722
25.3753
24.3715
23.5418
24.3718
25.3759
25.1421
24.158
23.3495
24.1583
25.1426
24.8807
23.9155
23.127
23.9158
24.8813
24.5985
23.6515
22.8815
23.6518
24.5991
24.3006
23.371
22.6189
23.3713
24.3012
23.9918
23.079
22.3439
23.0792
23.9923
23.6765
22.7796
22.061
22.7798
23.6768
23.3584
22.4766
21.7738
22.4768
23.3586
23.0415
22.1739
21.4862
22.1739
23.0417
22.7296
21.8748
21.2019
21.8749
22.7297
22.4271
21.5837
20.9248
21.5837
22.4272
22.1385
21.3045
20.659
21.3045
22.1385
21.8688
21.0419
20.409
21.0419
21.8689
21.6238
20.8011
20.1797
20.8012
21.6239
21.41
20.5879
19.9769
20.588
21.4102
21.2349
20.4091
19.8069
20.4092
21.2351
21.1075
20.2723
19.677
20.2724
21.1077
21.0379
20.1865
19.5957
20.1866
21.0382
21.0387
20.1619
19.5725
20.1621
21.0389
21.1196
20.2078
19.6158
20.208
21.1199
21.3034
20.3402
19.7403
20.3403
21.3036
21.608
20.5754
19.9608
20.5756
21.6082
22.0518
20.9258
20.2876
20.9259
22.052
22.6537
21.4033
20.7303
21.4035
22.6539
23.4272
22.0138
21.2919
22.0139
23.4274
24.3732
22.7499
21.9623
22.7501
24.3735
25.4701
23.5826
22.7106
23.5828
25.4705
26.6628
24.4506
23.4775
24.4508
26.6632
27.8379
25.2515
24.1753
25.2517
27.8383
19.5455
18.504
16.934
18.5043
19.5462
22.4665
21.0468
19.6171
21.0472
22.4673
24.2265
22.8129
21.4218
22.8133
24.2273
25.3258
23.9257
22.5859
23.9262
25.3267
25.9765
24.6056
23.3144
24.6061
25.9774
26.3349
24.9941
23.7472
24.9946
26.3358
26.4955
25.184
23.9769
25.1845
26.4965
26.5187
25.2354
24.0643
25.2358
26.5197
26.4506
25.1919
24.0516
25.1924
26.4516
26.3095
25.0762
23.9662
25.0765
26.3102
26.1153
24.9051
23.8218
24.9051
26.1155
25.8813
24.6937
23.6357
24.6937
25.8815
25.6169
24.4511
23.417
24.4512
25.6173
25.3296
24.185
23.1736
24.1851
25.3298
25.0242
23.9005
22.9109
23.9005
25.0242
24.7061
23.6028
22.6343
23.6027
24.7059
24.3799
23.2963
22.3483
23.2961
24.3796
24.0492
22.9848
22.0567
22.9845
24.0488
23.7179
22.672
21.7635
22.6717
23.7176
23.3902
22.3616
21.4724
22.3613
23.3897
23.0704
22.058
21.1874
22.0577
23.0699
22.7633
21.7653
20.913
21.7651
22.763
22.4743
21.4885
20.6537
21.4883
22.474
22.2092
21.2328
20.4148
21.2327
22.2091
21.975
21.0045
20.2023
21.0046
21.9752
21.78
20.8111
20.0232
20.8112
21.7803
21.6342
20.6612
19.8861
20.6614
21.6344
21.5499
20.5658
19.8012
20.566
21.55
21.5425
20.5381
19.7811
20.5384
21.5428
21.6268
20.5913
19.8378
20.5917
21.6274
21.8351
20.7498
19.9942
20.7501
21.8357
22.2007
21.0429
20.2768
21.0432
22.2013
22.7631
21.4998
20.7116
21.5001
22.7636
23.5744
22.1583
21.3312
22.1585
23.5748
24.695
23.0578
22.1677
23.058
24.6954
26.1839
24.2293
23.2432
24.2295
26.1842
28.0755
25.673
24.5476
25.6732
28.0759
30.3341
27.3181
26.0064
27.3183
30.3345
32.7569
28.9667
27.443
28.9669
32.7574
19.0628
17.9919
15.9772
17.9922
19.0634
22.8224
21.1145
19.1974
21.1149
22.8232
25.0781
23.278
21.3511
23.2784
25.0789
26.4379
24.6079
22.7182
24.6083
26.4387
27.2309
25.4142
23.5706
25.4146
27.2317
27.6771
25.8831
24.0861
25.8835
27.6781
27.8966
26.1285
24.3755
26.1289
27.8975
27.9609
26.22
24.5081
26.2204
27.9618
27.92
26.204
24.5291
26.2044
27.9202
27.8009
26.1118
24.4717
26.1118
27.8004
27.6215
25.957
24.35
25.9562
27.6204
27.3968
25.7573
24.1812
25.7564
27.3975
27.1377
25.5218
23.9757
25.5216
27.1384
26.8521
25.2594
23.7416
25.259
26.8506
26.5429
24.975
23.4851
24.9742
26.5405
26.2179
24.6745
23.2119
24.6734
26.2155
25.8838
24.3634
22.9272
24.3621
25.8813
25.5429
24.045
22.6352
24.0437
25.5399
25.1968
23.7228
22.3394
23.7218
25.1953
24.8518
23.4011
22.044
23.4
24.8495
24.5128
23.0846
21.7537
23.0836
24.5106
24.1849
22.7777
21.4727
22.777
24.1841
23.8735
22.485
21.2056
22.4846
23.8722
23.5841
22.2123
20.9581
22.2123
23.5844
23.3247
21.9662
20.7364
21.9665
23.3264
23.1036
21.754
20.5478
21.7542
23.1046
22.9312
21.5851
20.4013
21.5851
22.9313
22.8194
21.4711
20.3086
21.4711
22.8187
22.7847
21.4273
20.2846
21.4277
22.7847
22.8481
21.4712
20.3447
21.4718
22.8493
23.0464
21.6324
20.5189
21.6332
23.0482
23.4301
21.9555
20.8473
21.9563
23.4317
24.061
22.4898
21.375
22.4906
24.063
25.0417
23.3125
22.1713
23.3131
25.0431
26.5249
24.5326
23.3301
24.533
26.5258
28.7278
26.2929
24.9709
26.2933
28.7284
31.9381
28.7547
27.2162
28.755
31.9385
36.4384
32.0074
30.1071
32.0076
36.4388
42.162
35.7856
33.3744
35.7858
42.1624
17.7415
17.3417
14.6504
17.3419
17.7418
23.7544
21.7229
18.9079
21.7232
23.7548
27.1633
24.6464
21.6547
24.6466
27.1637
29.0782
26.3752
23.3648
26.3755
29.0787
30.1875
27.4308
24.4433
27.4311
30.1881
30.8493
28.075
25.1239
28.0753
30.8499
31.2223
28.4498
25.54
28.4502
31.2208
31.3999
28.6386
25.7712
28.6389
31.396
31.4384
28.6934
25.8682
28.6928
31.4245
31.3709
28.6521
25.866
28.6508
31.3568
31.2366
28.5394
25.7932
28.5369
31.2333
31.0374
28.3674
25.6593
28.3678
31.0616
30.8066
28.1499
25.4786
28.1508
30.8187
30.5439
27.8981
25.2609
27.8953
30.5324
30.231
27.6141
25.0136
27.6098
30.2148
29.8987
27.3086
24.7444
27.3044
29.8887
29.569
26.9915
24.4607
26.9869
29.5595
29.2348
26.6637
24.1665
26.6588
29.2148
28.8664
26.3254
23.8652
26.3234
28.8676
28.4966
25.9859
23.5634
25.9825
28.4886
28.1348
25.6507
23.2662
25.6475
28.1251
27.7863
25.3244
22.9782
25.3239
27.7878
27.4519
25.0128
22.7042
25.0113
27.4406
27.1342
24.7217
22.4508
24.7223
27.1401
26.8573
24.4589
22.2247
24.4617
26.8744
26.6214
24.2328
22.0334
24.2341
26.6323
26.4413
24.0534
21.8873
24.0533
26.4494
26.3229
23.9324
21.7997
23.9309
26.3173
26.269
23.885
21.7899
23.8845
26.2595
26.3178
23.9343
21.8749
23.936
26.3165
26.5206
24.1199
22.0965
24.1223
26.5285
26.9194
24.4949
22.5046
24.4971
26.9267
27.5747
25.1272
23.1669
25.1301
27.5877
28.6512
26.1445
24.1998
26.1463
28.6572
30.4628
27.766
25.7983
27.767
30.4651
33.5082
30.3599
28.2882
30.3604
33.5093
38.7947
34.5553
32.1986
34.5556
38.7953
48.3385
41.4158
38.3324
41.4161
48.339
65.0037
51.8084
47.3867
51.8086
65.0042
13.9713
19.6018
17.075
19.6016
13.971
28.2123
28.5258
25.5615
28.5257
28.212
34.7571
33.5698
30.2627
33.5697
34.7569
38.2558
36.694
33.2838
36.6939
38.2556
40.4316
38.7504
35.3067
38.7503
40.4314
41.8754
40.1378
36.6843
40.1377
41.8753
42.825
41.0622
37.6144
41.0621
42.8294
43.4203
41.648
38.2177
41.6488
43.4243
43.7537
41.9782
38.5733
41.9793
43.7563
43.8787
42.1064
38.7347
42.1056
43.8855
43.8725
42.0939
38.7482
42.0879
43.8676
43.7533
41.976
38.6654
41.9694
43.7567
43.5303
41.7384
38.4704
41.7366
43.5413
43.2439
41.4294
38.1982
41.4265
43.2249
42.8692
41.0588
37.8683
41.0529
42.8442
42.4484
40.6403
37.4904
40.6327
42.4309
42.0261
40.1924
37.0805
40.1836
42.0066
41.5718
39.7216
36.6489
39.7146
41.558
41.081
39.2322
36.2033
39.2292
41.0805
40.5996
38.7411
35.7596
38.7362
40.5843
40.1221
38.2583
35.3259
38.2555
40.1076
39.6555
37.7929
34.9086
37.7947
39.6613
39.2313
37.3564
34.5172
37.3566
39.223
38.8517
36.9615
34.1642
36.9627
38.8516
38.5187
36.6236
33.8623
36.6247
38.5409
38.2681
36.3579
33.6259
36.356
38.2755
38.1178
36.185
33.4745
36.1818
38.1101
38.0884
36.1368
33.4382
36.1345
38.0679
38.1698
36.2309
33.5496
36.2321
38.1604
38.4505
36.5353
33.859
36.5389
38.4724
39.0561
37.1527
34.4629
37.1548
39.0667
40.0154
38.168
35.447
38.171
40.019
41.4459
39.7535
36.9731
39.7573
41.4622
43.5204
42.1476
39.2723
42.1497
43.5279
47.4011
45.7785
42.7292
45.7797
47.403
53.4277
51.3893
48.0434
51.3899
53.4284
63.1916
60.3647
56.4987
60.365
63.192
83.8032
76.587
71.1696
76.5873
83.8035
169.226
130.902
118.866
130.902
169.227
17.676
15.5901
14.3085
15.5901
17.676
15.8356
14.0212
12.2138
14.0214