/*--------------------------------*- C++ -*----------------------------------*\
  =========                 |
  \\      /  F ield         | OpenFOAM: The Open Source CFD Toolbox
   \\    /   O peration     | Website:  https://openfoam.org
    \\  /    A nd           | Version:  9
     \\/     M anipulation  |
\*---------------------------------------------------------------------------*/
FoamFile
{
    format      ascii;
    class       volScalarField;
    location    "3";
    object      k;
}
// * * * * * * * * * * * * * * * * * * * * * * * * * * * * * * * * * * * * * //

dimensions      [0 2 -2 0 0 0 0];

internalField   nonuniform List<scalar> 
4545
(
0.960775
1.20109
1.09704
1.20108
0.960768
1.51916
1.53009
1.423
1.53009
1.51916
1.74154
1.7026
1.58943
1.7026
1.74155
1.85591
1.80635
1.69319
1.80636
1.85592
1.92664
1.87421
1.76201
1.87423
1.92665
1.97405
1.92054
1.80932
1.92059
1.97408
2.00636
1.95251
1.84229
1.95256
2.00633
2.02794
1.97436
1.86514
1.97441
2.02818
2.04222
1.98887
1.8806
1.98891
2.0425
2.05138
1.99778
1.89044
1.99783
2.05139
2.05607
2.00238
1.89594
2.00239
2.05577
2.05751
2.00366
1.89802
2.00375
2.05759
2.0563
2.00238
1.89755
2.0027
2.05725
2.05256
1.9986
1.89474
1.99906
2.05417
2.04816
1.99287
1.88948
1.99294
2.04829
2.04187
1.98536
1.88244
1.98492
2.04026
2.03257
1.97569
1.87354
1.97509
2.03068
2.02072
1.96404
1.86287
1.96364
2.01929
2.00691
1.95064
1.85052
1.95059
2.00711
1.99294
1.93565
1.83647
1.9358
1.99377
1.97693
1.91886
1.82064
1.91908
1.97733
1.95866
1.9002
1.80297
1.90057
1.95978
1.93869
1.87958
1.78334
1.88001
1.94031
1.91705
1.85696
1.76163
1.85717
1.91799
1.89411
1.8322
1.7378
1.83211
1.8934
1.86878
1.80512
1.71183
1.80497
1.86772
1.84053
1.77554
1.6834
1.77548
1.84005
1.80945
1.74333
1.65317
1.74334
1.80892
1.77599
1.70865
1.62099
1.70885
1.77611
1.74078
1.67159
1.58651
1.67185
1.74075
1.70283
1.63195
1.5497
1.63224
1.70312
1.66206
1.58981
1.51058
1.59014
1.66305
1.62001
1.54544
1.46917
1.54559
1.62052
1.57552
1.49863
1.42546
1.49866
1.57576
1.52832
1.44939
1.3794
1.44937
1.5283
1.47845
1.39775
1.33091
1.39773
1.47841
1.4262
1.34371
1.27984
1.3437
1.42618
1.37174
1.28689
1.22581
1.28689
1.37173
1.31424
1.22581
1.16831
1.22581
1.31424
3.23181
3.27408
2.99201
3.27408
3.23182
3.94059
3.82713
3.55643
3.82714
3.94061
4.31887
4.17927
3.90532
4.17929
4.3189
4.54211
4.39534
4.12664
4.39536
4.54215
4.68474
4.53614
4.2727
4.53618
4.68479
4.77982
4.63019
4.37142
4.63024
4.77964
4.84321
4.69301
4.43841
4.69303
4.84288
4.88365
4.73389
4.4831
4.73399
4.88438
4.90869
4.75903
4.51158
4.75907
4.90967
4.92378
4.77233
4.52783
4.77227
4.92374
4.92893
4.77638
4.53465
4.77629
4.92814
4.92714
4.77353
4.53426
4.77366
4.92734
4.91981
4.76486
4.52824
4.76549
4.92159
4.90742
4.7509
4.51654
4.75173
4.90977
4.8936
4.73327
4.50048
4.73334
4.89317
4.87476
4.71167
4.48038
4.71081
4.87178
4.8506
4.68576
4.4564
4.68465
4.84769
4.82097
4.6559
4.42878
4.65507
4.81851
4.78722
4.62253
4.39774
4.62244
4.78824
4.75396
4.58625
4.36332
4.58653
4.75621
4.71595
4.54641
4.32534
4.54672
4.71666
4.67253
4.50272
4.28374
4.50342
4.6746
4.62537
4.45539
4.23837
4.45628
4.62843
4.57423
4.40443
4.18905
4.40483
4.57643
4.52121
4.34959
4.13567
4.34926
4.51968
4.4631
4.29036
4.0781
4.28989
4.46017
4.39792
4.22642
4.01602
4.22621
4.39609
4.32736
4.15774
3.94894
4.15758
4.32519
4.25169
4.08439
3.87685
4.08449
4.25004
4.1714
4.00663
3.80008
4.00686
4.16898
4.08586
3.9243
3.71869
3.92467
4.08471
3.99433
3.83736
3.63268
3.83798
3.99524
3.89959
3.74626
3.54212
3.74677
3.90068
3.80058
3.6507
3.44689
3.65098
3.80169
3.69618
3.5504
3.34683
3.55047
3.69656
3.58656
3.44517
3.24172
3.44517
3.5866
3.47219
3.33465
3.13109
3.33464
3.47217
3.35386
3.21753
3.014
3.21753
3.35385
3.22955
3.08941
2.88935
3.08941
3.22955
4.32824
4.24505
3.99338
4.24508
4.32827
4.99335
4.82236
4.5942
4.82239
4.99339
5.39127
5.21386
4.99055
5.21389
5.39132
5.64707
5.46912
5.25329
5.46916
5.64712
5.8159
5.64003
5.43079
5.64008
5.81596
5.92956
5.75557
5.55194
5.75563
5.92963
6.00566
5.83318
5.63433
5.83325
6.00574
6.05506
5.88379
5.68907
5.88389
6.05524
6.08504
5.9146
5.72347
5.91472
6.08526
6.10048
5.93042
5.74244
5.93053
6.10062
6.10461
5.93468
5.74953
5.93476
6.10468
6.10022
5.93017
5.7475
5.93028
6.10039
6.08851
5.91818
5.73797
5.91835
6.08888
6.07059
5.89975
5.72165
5.89992
6.07102
6.04771
5.876
5.69982
5.87603
6.04778
6.02009
5.84746
5.67307
5.8473
6.01973
5.98789
5.81439
5.64176
5.81417
5.98739
5.95124
5.77702
5.60617
5.77686
5.95084
5.91043
5.73559
5.56648
5.73557
5.91042
5.86573
5.69016
5.52272
5.69025
5.86597
5.81672
5.64065
5.47484
5.64079
5.81699
5.76318
5.58692
5.42273
5.58712
5.76361
5.70502
5.52886
5.36627
5.52906
5.70552
5.64204
5.46629
5.3053
5.46642
5.64237
5.57416
5.39909
5.23968
5.39909
5.57408
5.50091
5.32704
5.16925
5.32697
5.50064
5.422
5.24994
5.09385
5.24988
5.42179
5.33739
5.16768
5.01332
5.16765
5.33724
5.24711
5.0802
4.92758
5.08024
5.24707
5.15121
4.9875
4.83656
4.98759
5.15124
5.04968
4.88954
4.74024
4.88969
5.04985
4.94249
4.78629
4.63855
4.78646
4.9428
4.82983
4.67772
4.5314
4.67785
4.83011
4.71158
4.56367
4.41862
4.56374
4.71178
4.58756
4.44391
4.29996
4.44394
4.58764
4.45763
4.31815
4.17508
4.31816
4.45766
4.32172
4.18585
4.04344
4.18585
4.32174
4.18003
4.04589
3.90431
4.0459
4.18005
4.02986
3.8952
3.75721
3.89521
4.02988
5.00851
4.89788
4.67849
4.89792
5.00857
5.64572
5.46839
5.27383
5.46843
5.6458
6.04806
5.8707
5.68348
5.87075
6.04813
6.31954
6.144
5.96465
6.14405
6.31962
6.50423
6.3318
6.15906
6.33185
6.50432
6.63068
6.46086
6.29365
6.46092
6.63077
6.7162
6.54848
6.38591
6.54855
6.71631
6.77213
6.60604
6.4474
6.60612
6.77226
6.80614
6.64125
6.48598
6.64133
6.80628
6.82351
6.65941
6.50707
6.65949
6.82364
6.82798
6.66437
6.51463
6.66444
6.8281
6.8226
6.65919
6.5117
6.65927
6.82274
6.80882
6.64544
6.50013
6.64553
6.809
6.78796
6.62439
6.48096
6.62448
6.78815
6.76121
6.59726
6.45556
6.59731
6.76133
6.72921
6.56477
6.42468
6.56477
6.72921
6.69235
6.52739
6.38882
6.52736
6.69229
6.65088
6.48542
6.34833
6.4854
6.65082
6.60496
6.43907
6.30341
6.43908
6.60497
6.55461
6.38838
6.25413
6.38843
6.55469
6.49976
6.33338
6.20051
6.33345
6.49988
6.44027
6.27396
6.14248
6.27405
6.44043
6.37598
6.21003
6.07995
6.21012
6.37614
6.30671
6.14145
6.01278
6.14151
6.30684
6.23231
6.06808
5.94086
6.06811
6.23235
6.15256
5.98977
5.86404
5.98978
6.15255
6.06731
5.90638
5.78219
5.90639
6.06731
5.97647
5.81779
5.69517
5.8178
5.97648
5.87994
5.72387
5.60284
5.72391
5.88
5.77767
5.62454
5.50507
5.6246
5.77777
5.66958
5.51965
5.40171
5.51972
5.66971
5.55559
5.40905
5.29257
5.40913
5.55573
5.43558
5.29257
5.17745
5.29263
5.43571
5.30937
5.16995
5.05605
5.17
5.30946
5.17669
5.04089
4.92806
5.04093
5.17676
5.0373
4.90503
4.79305
4.90506
5.03736
4.89106
4.76185
4.65052
4.76188
4.89111
4.7382
4.61047
4.49986
4.6105
4.73824
4.57659
4.44858
4.34084
4.4486
4.57664
5.48376
5.36741
5.17269
5.36746
5.48385
6.10272
5.92808
5.75612
5.92813
6.10282
6.50572
6.3332
6.16892
6.33325
6.50582
6.78616
6.61613
6.45941
6.61619
6.78626
6.98142
6.81462
6.66417
6.81468
6.98152
7.11727
6.95316
6.8079
6.95322
7.11739
7.21027
7.0483
6.90737
7.04837
7.21038
7.27167
7.11138
6.9741
7.11146
7.27179
7.30933
7.15031
7.01613
7.15038
7.30946
7.32879
7.17066
7.03917
7.17074
7.32893
7.33407
7.17652
7.04741
7.1766
7.3342
7.3284
7.17117
7.04411
7.17125
7.32854
7.31349
7.15643
7.03131
7.15651
7.31364
7.29082
7.13371
7.01027
7.13379
7.29096
7.26167
7.10437
6.98249
7.10443
7.2618
7.22685
7.06927
6.94884
7.06932
7.22694
7.18692
7.02901
6.90993
7.02905
7.18698
7.1422
6.98398
6.8662
6.98401
7.14225
7.09292
6.93444
6.81791
6.93448
7.09298
7.03914
6.88051
6.76522
6.88056
7.03922
6.98089
6.82226
6.7082
6.82232
6.98098
6.9181
6.75968
6.64685
6.75974
6.9182
6.85067
6.6927
6.58112
6.69276
6.85077
6.77849
6.62125
6.51094
6.6213
6.77859
6.70145
6.54522
6.43621
6.54526
6.70152
6.6194
6.46449
6.35682
6.46453
6.61945
6.53222
6.37894
6.27263
6.37897
6.53227
6.4398
6.28841
6.18347
6.28844
6.43986
6.34199
6.19273
6.08916
6.19277
6.34205
6.23862
6.0917
5.98947
6.09174
6.2387
6.12951
5.98506
5.88412
5.98511
6.1296
6.0144
5.87253
5.77281
5.87258
6.01449
5.89298
5.75375
5.65515
5.7538
5.89307
5.76486
5.62833
5.53073
5.62838
5.76495
5.62964
5.49583
5.39908
5.49588
5.62971
5.4869
5.35578
5.25969
5.35582
5.48697
5.3364
5.20762
5.11199
5.20766
5.33647
5.17839
5.05053
4.9554
5.05056
5.17845
5.01102
4.88247
4.7896
4.88251
5.01108
5.82823
5.71071
5.53302
5.71077
5.82834
6.43445
6.26327
6.10605
6.26334
6.43457
6.837
6.66876
6.51896
6.66883
6.83712
7.1229
6.95731
6.81464
6.95739
7.12302
7.32531
7.16286
7.0261
7.16294
7.32544
7.46796
7.3081
7.17621
7.30818
7.46809
7.5666
7.40883
7.28099
7.40891
7.56674
7.63228
7.47615
7.35171
7.47623
7.63241
7.67288
7.51801
7.39647
7.51809
7.67302
7.69409
7.54014
7.4211
7.54022
7.69423
7.70007
7.54678
7.42995
7.54686
7.70022
7.69425
7.54135
7.42642
7.54144
7.69439
7.67851
7.52589
7.41275
7.52597
7.67865
7.65446
7.50192
7.39034
7.502
7.65461
7.62354
7.47094
7.36081
7.47102
7.62368
7.58667
7.43395
7.32515
7.43402
7.58679
7.54453
7.39164
7.2841
7.3917
7.54464
7.49757
7.34451
7.23816
7.34457
7.49767
7.44611
7.29292
7.18772
7.29297
7.4462
7.39031
7.23706
7.13299
7.23712
7.3904
7.33027
7.17711
7.07416
7.17716
7.33037
7.26605
7.11311
7.01128
7.11317
7.26614
7.19762
7.0451
6.9444
7.04515
7.19772
7.12495
6.97304
6.87348
6.97309
7.12504
7.04798
6.89689
6.79849
6.89694
7.04806
6.96661
6.81654
6.71931
6.81659
6.96669
6.88075
6.73188
6.63581
6.73192
6.88082
6.79022
6.6427
6.54779
6.64275
6.7903
6.69483
6.54877
6.45498
6.54882
6.69492
6.59431
6.44978
6.35705
6.44983
6.59439
6.48828
6.34532
6.2536
6.34538
6.48837
6.37631
6.23494
6.14413
6.235
6.3764
6.25785
6.11809
6.02809
6.11815
6.25795
6.1323
5.99418
5.90487
5.99423
6.13239
5.999
5.86257
5.77382
5.86261
5.99909
5.85735
5.72261
5.63425
5.72265
5.85743
5.70692
5.57362
5.48547
5.57366
5.707
5.54782
5.41468
5.32674
5.41472
5.5479
5.37827
5.24376
5.15756
5.2438
5.37834
6.07502
5.9572
5.79091
5.95728
6.07514
6.67228
6.50381
6.3562
6.50389
6.67241
7.07413
6.90898
6.76846
6.90906
7.07427
7.3634
7.20092
7.06716
7.201
7.36354
7.57054
7.41109
7.28293
7.41118
7.57069
7.71786
7.56091
7.43738
7.56099
7.718
7.82045
7.66553
7.54584
7.66561
7.82059
7.88912
7.73583
7.61938
7.73592
7.88927
7.93175
7.77973
7.66603
7.77982
7.9319
7.95408
7.80303
7.69171
7.80312
7.95424
7.9604
7.81008
7.70086
7.81017
7.96055
7.95424
7.80442
7.69701
7.80451
7.95439
7.93764
7.78821
7.68251
7.7883
7.93779
7.91235
7.76313
7.65892
7.76321
7.9125
7.87991
7.73078
7.62795
7.73086
7.88006
7.84138
7.69228
7.59072
7.69235
7.84152
7.79757
7.64843
7.54807
7.6485
7.7977
7.74903
7.59984
7.50062
7.5999
7.74914
7.6962
7.54697
7.44885
7.54704
7.69631
7.63935
7.49014
7.39308
7.4902
7.63946
7.57872
7.42959
7.33358
7.42966
7.57882
7.51444
7.3655
7.27052
7.36556
7.51455
7.44661
7.29796
7.20401
7.29802
7.44671
7.37527
7.22703
7.1341
7.22709
7.37537
7.30043
7.1527
7.06079
7.15276
7.30053
7.22204
7.07491
6.984
7.07497
7.22214
7.14
6.99354
6.90359
6.99359
7.14009
7.05411
6.90834
6.81932
6.9084
7.0542
6.96409
6.81901
6.73084
6.81906
6.96418
6.86954
6.72511
6.63772
6.72516
6.86964
6.76993
6.62607
6.53938
6.62613
6.77003
6.66459
6.52125
6.43513
6.5213
6.66469
6.55272
6.40986
6.32421
6.40991
6.55282
6.43344
6.29106
6.20576
6.29111
6.43353
6.30581
6.16397
6.0789
6.16403
6.3059
6.16895
6.02771
5.94271
6.02776
6.16904
6.02221
5.88136
5.79626
5.88141
6.0223
5.86547
5.72381
5.63859
5.72385
5.86555
5.69681
5.55287
5.46892
5.55292
5.69689
6.2415
6.12359
5.96452
6.12367
6.24163
6.83277
6.66616
6.5246
6.66624
6.83291
7.23395
7.07086
6.93614
7.07095
7.2341
7.52517
7.36475
7.23652
7.36484
7.52532
7.73518
7.57773
7.4549
7.57782
7.73533
7.88534
7.73036
7.61199
7.73045
7.8855
7.99032
7.83735
7.72269
7.83744
7.99048
8.06073
7.90941
7.79788
7.9095
8.06089
8.10439
7.95439
7.84553
7.95449
8.10455
8.1271
7.97815
7.87161
7.97825
8.12727
8.13322
7.9851
7.8806
7.9852
8.13338
8.1264
7.97891
7.87618
7.979
8.12656
8.10873
7.96177
7.86072
7.96186
8.10889
8.08214
7.93553
7.83594
7.93562
8.08229
8.04826
7.9019
7.80367
7.90198
8.04841
8.00828
7.86208
7.76511
7.86216
8.00842
7.9631
7.817
7.72121
7.81708
7.96323
7.91341
7.76738
7.6727
7.76745
7.91353
7.85977
7.71378
7.62017
7.71385
7.85989
7.80258
7.65664
7.56406
7.65671
7.8027
7.74219
7.59632
7.50473
7.59639
7.7423
7.67886
7.53309
7.44247
7.53316
7.67898
7.6128
7.46715
7.37747
7.46721
7.61291
7.54415
7.39864
7.30987
7.3987
7.54426
7.47298
7.32763
7.23974
7.32768
7.47309
7.39931
7.25408
7.16703
7.25414
7.39941
7.32304
7.17789
7.09161
7.17795
7.32314
7.24396
7.09879
7.0132
7.09885
7.24406
7.16172
7.0164
6.93141
7.01645
7.16181
7.07578
6.93016
6.84565
6.93021
7.07588
6.98544
6.83935
6.7552
6.8394
6.98554
6.8898
6.74308
6.65917
6.74314
6.8899
6.78779
6.64034
6.55653
6.64039
6.78789
6.6782
6.52999
6.44616
6.53004
6.6783
6.55979
6.41084
6.32685
6.41089
6.55988
6.43131
6.28169
6.1974
6.28174
6.43141
6.29179
6.14131
6.05655
6.14136
6.29188
6.14078
5.9883
5.90305
5.98835
6.14087
5.97614
5.82023
5.73575
5.82027
5.97622
6.33742
6.21943
6.06435
6.21951
6.33756
6.9252
6.75966
6.62144
6.75975
6.92535
7.32585
7.16395
7.03242
7.16404
7.326
7.61793
7.45871
7.33353
7.45881
7.61809
7.82927
7.67301
7.55311
7.67311
7.82943
7.9807
7.82692
7.71139
7.82701
7.98086
8.08661
7.93488
7.82301
7.93498
8.08678
8.15751
8.0075
7.8987
8.00759
8.15768
8.2012
8.0526
7.94644
8.05269
8.20136
8.2235
8.07605
7.97219
8.07615
8.22366
8.22881
8.08234
7.98052
8.08243
8.22898
8.22092
8.07521
7.97517
8.07531
8.22108
8.20188
8.05687
7.95851
8.05696
8.20204
8.17383
8.02935
7.93246
8.02944
8.17399
8.13848
7.9944
7.89888
7.99449
8.13863
8.0971
7.95335
7.8591
7.95343
8.09725
8.05072
7.90721
7.81414
7.90729
8.05086
8.00015
7.85682
7.76487
7.85689
8.00028
7.94607
7.80286
7.71197
7.80293
7.9462
7.88901
7.74587
7.656
7.74594
7.88913
7.82943
7.68634
7.59744
7.68641
7.82955
7.76775
7.62465
7.53667
7.62471
7.76786
7.70426
7.5611
7.474
7.56117
7.70437
7.63922
7.49594
7.40966
7.496
7.63932
7.5728
7.4293
7.34379
7.42936
7.57291
7.5051
7.36123
7.27641
7.36129
7.5052
7.43605
7.29165
7.20742
7.29171
7.43615
7.36547
7.22031
7.13655
7.22037
7.36556
7.29294
7.14678
7.06336
7.14683
7.29303
7.21785
7.0704
6.98718
7.07046
7.21795
7.13934
6.99031
6.90713
6.99037
7.13944
7.05628
6.9054
6.82208
6.90545
7.05637
6.96729
6.81436
6.73076
6.81441
6.96739
6.87084
6.71573
6.6317
6.71579
6.87093
6.76526
6.60796
6.52334
6.60802
6.76535
6.6489
6.48944
6.40408
6.48949
6.64899
6.52033
6.35853
6.27225
6.35858
6.52042
6.37869
6.21342
6.12619
6.21346
6.37878
6.22149
6.05134
5.96434
6.05139
6.22157
6.36786
6.24978
6.09594
6.24986
6.368
6.95448
6.78926
6.65208
6.78935
6.95463
7.35477
7.19328
7.06275
7.19337
7.35493
7.64683
7.48806
7.36384
7.48815
7.64699
7.85816
7.70239
7.58343
7.70249
7.85832
8.00942
7.8562
7.7416
7.85629
8.00959
8.11493
7.96385
7.8529
7.96395
8.1151
8.18517
8.03591
7.92805
8.03601
8.18534
8.22793
8.08021
7.97501
8.0803
8.2281
8.24907
8.10265
7.99976
8.10274
8.24924
8.25302
8.10773
8.00691
8.10782
8.25319
8.24367
8.09932
8.00032
8.09941
8.24383
8.22298
8.07951
7.98223
8.0796
8.22314
8.19332
8.05056
7.95479
8.05064
8.19347
8.15641
8.01424
7.91989
8.01433
8.15656
8.11364
7.97197
7.87893
7.97205
8.11378
8.06612
7.92485
7.83304
7.92493
8.06626
8.01478
7.87382
7.78316
7.87389
8.01491
7.96041
7.81967
7.7301
7.81974
7.96054
7.90368
7.76306
7.67453
7.76313
7.9038
7.84518
7.7046
7.61703
7.70466
7.8453
7.78545
7.64478
7.55812
7.64484
7.78556
7.72493
7.58404
7.49823
7.5841
7.72504
7.66401
7.52273
7.43768
7.52279
7.66411
7.60296
7.4611
7.37672
7.46115
7.60306
7.54199
7.39928
7.31547
7.39934
7.54208
7.48111
7.33728
7.25391
7.33733
7.48121
7.42019
7.2749
7.19182
7.27495
7.42029
7.35886
7.21173
7.12877
7.21178
7.35895
7.29653
7.1471
7.06403
7.14715
7.29662
7.23219
7.07998
6.99661
7.08003
7.23228
7.16446
7.00907
6.92519
7.00912
7.16455
7.09172
6.9328
6.84821
6.93285
7.09181
7.01202
6.84933
6.76384
6.84938
7.01211
6.92325
6.75665
6.67009
6.7567
6.92334
6.82321
6.65265
6.56482
6.6527
6.8233
6.70988
6.53514
6.44585
6.53519
6.70997
6.58182
6.40175
6.31094
6.4018
6.58191
6.43605
6.24922
6.158
6.24926
6.43614
6.33441
6.21621
6.06101
6.2163
6.33454
6.92217
6.75655
6.61823
6.75663
6.92232
7.32238
7.1605
7.0289
7.16059
7.32253
7.6136
7.45452
7.32931
7.45461
7.61376
7.82367
7.66769
7.5478
7.66779
7.82383
7.97342
7.8201
7.70463
7.8202
7.97359
8.07728
7.92623
7.81447
7.92633
8.07744
8.14576
7.99668
7.88807
7.99677
8.14592
8.1867
8.03932
7.93342
8.03941
8.18687
8.20598
8.06007
7.95655
8.06016
8.20614
8.20805
8.06345
7.96207
8.06355
8.20821
8.19689
8.05343
7.95393
8.05352
8.19704
8.1743
8.03193
7.93422
8.03201
8.17445
8.14287
8.00142
7.9053
8.0015
8.14302
8.10434
7.96368
7.86906
7.96377
8.10449
8.06015
7.92019
7.82696
7.92027
8.06029
8.01151
7.87214
7.78021
7.87221
8.01164
7.95944
7.82054
7.72983
7.82061
7.95956
7.90483
7.76628
7.67673
7.76635
7.90495
7.84848
7.71015
7.62167
7.71021
7.8486
7.79111
7.65284
7.56538
7.6529
7.79122
7.73339
7.59501
7.50847
7.59507
7.7335
7.67592
7.5372
7.45151
7.53726
7.67602
7.61922
7.47993
7.39498
7.47998
7.61932
7.56375
7.42356
7.33924
7.42361
7.56384
7.50982
7.36837
7.28454
7.36843
7.50991
7.45759
7.31447
7.23097
7.31452
7.45768
7.40704
7.26177
7.17841
7.26182
7.40712
7.3579
7.20996
7.12652
7.21001
7.35798
7.30974
7.15848
7.07467
7.15853
7.30983
7.26151
7.10627
7.02183
7.10631
7.26159
7.21178
7.05191
6.96657
7.05196
7.21186
7.15864
6.99358
6.90705
6.99362
7.15872
7.09972
6.929
6.84105
6.92904
7.0998
7.03238
6.85567
6.76605
6.85572
7.03246
6.95372
6.77081
6.67928
6.77086
6.9538
6.86091
6.67146
6.57778
6.67151
6.86099
6.75164
6.55446
6.45854
6.5545
6.75172
6.62219
6.41574
6.31865
6.41579
6.62227
6.23554
6.11719
5.95785
6.11726
6.23567
6.82691
6.66007
6.5183
6.66015
6.82705
7.2273
7.06418
6.92932
7.06427
7.22744
7.51688
7.35666
7.22837
7.35675
7.51704
7.72444
7.56748
7.44465
7.56757
7.72459
7.87135
7.71721
7.59895
7.71731
7.87151
7.97232
7.82063
7.70619
7.82072
7.97248
8.03801
7.88846
7.77729
7.88856
8.03817
8.07631
7.92866
7.8203
7.92875
8.07647
8.09312
7.94714
7.84127
7.94723
8.09328
8.0929
7.94843
7.8448
7.94852
8.09305
8.07965
7.93655
7.83491
7.93664
8.0798
8.05503
7.91323
7.81348
7.91331
8.05517
8.02179
7.88114
7.78309
7.88122
8.02193
7.98165
7.84203
7.74557
7.84211
7.98178
7.93609
7.7974
7.70244
7.79747
7.93621
7.88638
7.74851
7.65495
7.74858
7.88651
7.83363
7.69643
7.6042
7.69649
7.83374
7.77881
7.64213
7.55115
7.64219
7.77892
7.7228
7.58649
7.49668
7.58655
7.72291
7.66647
7.53032
7.4416
7.53037
7.66656
7.6106
7.47438
7.38667
7.47443
7.61069
7.55595
7.41938
7.33256
7.41943
7.55604
7.50322
7.36597
7.27993
7.36602
7.5033
7.45305
7.31473
7.22933
7.31478
7.45313
7.40598
7.26611
7.18118
7.26616
7.40606
7.36242
7.22045
7.13579
7.2205
7.3625
7.32258
7.17786
7.09323
7.1779
7.32265
7.28638
7.13818
7.05331
7.13822
7.28645
7.25339
7.10088
7.01546
7.10092
7.25346
7.22278
7.06507
6.97874
7.06511
7.22285
7.19325
7.02937
6.94175
7.02941
7.19332
7.16288
6.99187
6.90257
6.99191
7.16295
7.1292
6.95026
6.85889
6.9503
7.12927
7.08891
6.90138
6.80759
6.90142
7.08899
7.03812
6.8415
6.74498
6.84154
7.0382
6.97286
6.76656
6.66699
6.7666
6.97293
6.88945
6.67216
6.5694
6.6722
6.88952
6.78289
6.55297
6.44807
6.55301
6.78296
6.06624
5.94768
5.78094
5.94774
6.06636
6.66398
6.49504
6.34707
6.49512
6.6641
7.06488
6.89956
6.75877
6.89963
7.06501
7.35191
7.1896
7.05568
7.18968
7.35205
7.55561
7.39675
7.26855
7.39684
7.55575
7.69831
7.54248
7.41905
7.54257
7.69846
7.79519
7.64202
7.52261
7.64211
7.79534
7.85714
7.70633
7.59034
7.70641
7.85728
7.8921
7.74339
7.63038
7.74348
7.89225
7.90596
7.75916
7.64878
7.75924
7.90611
7.90326
7.75816
7.65013
7.75824
7.9034
7.88773
7.74429
7.63843
7.74437
7.88787
7.86115
7.71922
7.61537
7.7193
7.86128
7.82622
7.68569
7.58367
7.68576
7.82634
7.78463
7.6454
7.54512
7.64547
7.78475
7.7379
7.59985
7.50121
7.59992
7.73801
7.68731
7.55033
7.45323
7.55039
7.68742
7.634
7.49795
7.40232
7.498
7.6341
7.57902
7.44373
7.34949
7.44379
7.57912
7.52333
7.38862
7.29569
7.38867
7.52342
7.46788
7.33352
7.24182
7.33357
7.46796
7.41358
7.2793
7.18873
7.27935
7.41366
7.36132
7.2268
7.13724
7.22684
7.3614
7.31199
7.17682
7.08815
7.17686
7.31206
7.26642
7.13014
7.0422
7.13018
7.26649
7.22542
7.08745
7.00006
7.08749
7.22549
7.1897
7.04936
6.96228
7.0494
7.18976
7.15982
7.01632
6.92926
7.01635
7.15989
7.13615
6.98853
6.90117
6.98857
7.13621
7.11873
6.9659
6.87785
6.96594
7.11879
7.10713
6.94788
6.8587
6.94792
7.10719
7.10037
6.93333
6.84252
6.93337
7.10043
7.09658
6.92038
6.82739
6.92042
7.09664
7.093
6.90622
6.8105
6.90625
7.09306
7.08615
6.88743
6.78839
6.88747
7.08621
7.07183
6.85988
6.7569
6.85991
7.0719
7.04424
6.81813
6.71081
6.81817
7.04431
6.9974
6.7555
6.64364
6.75554
6.99747
6.92378
6.66438
6.54903
6.66441
6.92384
5.81677
5.69807
5.51973
5.69813
5.81686
6.4242
6.25217
6.09438
6.25223
6.42431
6.82589
6.65719
6.50695
6.65726
6.826
7.1092
6.94359
6.80061
6.94366
7.10932
7.30743
7.14551
7.00859
7.14559
7.30756
7.44443
7.28577
7.1539
7.28585
7.44456
7.53602
7.38026
7.25265
7.38034
7.53616
7.59336
7.44019
7.31623
7.44027
7.59349
7.62444
7.4736
7.35281
7.47368
7.62457
7.63511
7.48639
7.36843
7.48647
7.63524
7.62994
7.48314
7.36767
7.48321
7.63006
7.61225
7.46736
7.35428
7.46743
7.61236
7.584
7.44087
7.32995
7.44094
7.58411
7.54775
7.40628
7.29737
7.40634
7.54785
7.50515
7.36524
7.25824
7.3653
7.50525
7.45767
7.31923
7.21405
7.31929
7.45776
7.4066
7.26952
7.16607
7.26957
7.40669
7.35308
7.21723
7.11543
7.21728
7.35316
7.29819
7.16341
7.06319
7.16345
7.29826
7.24292
7.10902
7.01031
7.10906
7.24299
7.1883
7.05503
6.95775
7.05507
7.18836
7.13532
7.0024
6.90645
7.00244
7.13538
7.08499
6.95207
6.85735
6.9521
7.08505
7.03834
6.90499
6.81136
6.90502
7.03839
6.99642
6.86212
6.76942
6.86215
6.99648
6.96031
6.82441
6.73245
6.82444
6.96037
6.93107
6.7928
6.70132
6.79283
6.93113
6.90973
6.76813
6.67683
6.76816
6.90978
6.89721
6.75114
6.65964
6.75117
6.89726
6.89423
6.74231
6.65016
6.74235
6.89428
6.90105
6.74183
6.64847
6.74186
6.9011
6.91783
6.74917
6.65395
6.74921
6.91788
6.94373
6.7636
6.66569
6.76363
6.94378
6.97653
6.78259
6.68118
6.78262
6.97659
7.01258
6.80241
6.69658
6.80244
7.01263
7.04635
6.81753
6.70634
6.81756
7.0464
7.07124
6.82103
6.70355
6.82106
7.07129
7.07841
6.80492
6.68068
6.80495
7.07846
7.05556
6.75643
6.62638
6.75646
7.05561
5.46967
5.35161
5.15596
5.35165
5.46973
6.09104
5.915
5.74221
5.91505
6.09113
6.49358
6.3201
6.15514
6.32016
6.49367
6.77137
6.6009
6.44365
6.60096
6.77146
6.96203
6.79547
6.64467
6.79553
6.96213
7.09156
6.9285
6.7831
6.92857
7.09167
7.17664
7.01669
6.87586
7.01676
7.17675
7.22863
7.07148
6.93457
7.07155
7.22874
7.25552
7.1009
6.9674
7.10096
7.25562
7.26302
7.11072
6.98027
7.11078
7.26312
7.25569
7.10549
6.97773
7.10555
7.25578
7.23633
7.08827
6.96313
7.08832
7.23642
7.20708
7.061
6.93822
7.06105
7.20716
7.17027
7.02609
6.90552
7.02613
7.17034
7.12746
6.9851
6.86666
6.98514
7.12753
7.08006
6.93946
6.82305
6.9395
7.08012
7.02931
6.89038
6.77592
6.89041
7.02937
6.97632
6.83893
6.72637
6.83896
6.97636
6.92214
6.78617
6.67543
6.78619
6.92218
6.86777
6.73304
6.62407
6.73306
6.86781
6.81424
6.68053
6.57326
6.68055
6.81428
6.76261
6.62964
6.52399
6.62966
6.76264
6.71393
6.58136
6.47725
6.58139
6.71397
6.66936
6.53676
6.43407
6.53679
6.6694
6.63012
6.49695
6.39553
6.49698
6.63016
6.59751
6.46311
6.36278
6.46314
6.59755
6.57294
6.4365
6.33702
6.43652
6.57298
6.55793
6.41842
6.31949
6.41845
6.55797
6.55411
6.41023
6.31146
6.41025
6.55415
6.56279
6.41311
6.31403
6.41314
6.56284
6.58597
6.42827
6.3282
6.4283
6.58602
6.62526
6.45714
6.35524
6.45717
6.62531
6.68143
6.49978
6.395
6.49981
6.68148
6.75448
6.55554
6.4466
6.55557
6.75453
6.84276
6.62213
6.50748
6.62216
6.84281
6.94173
6.69459
6.57253
6.69462
6.94178
7.04299
6.76406
6.63284
6.76409
7.04303
7.13483
6.81778
6.67578
6.8178
7.13487
7.19621
6.83781
6.68597
6.83784
7.19625
4.99175
4.87879
4.65818
4.87881
4.99178
5.63308
5.45364
5.25793
5.45367
5.63313
6.03563
5.85667
5.66847
5.85671
6.03569
6.30467
6.12812
5.94795
6.12816
6.30474
6.4847
6.31202
6.13867
6.31207
6.48477
6.60462
6.43548
6.26786
6.43552
6.60469
6.68191
6.51594
6.3532
6.51599
6.68199
6.72803
6.56493
6.40638
6.56497
6.7281
6.75074
6.59024
6.43537
6.59028
6.7508
6.7555
6.59739
6.44583
6.59743
6.75555
6.74679
6.59086
6.4422
6.59088
6.74684
6.7268
6.57312
6.42733
6.57315
6.72685
6.69774
6.54617
6.40295
6.54619
6.69779
6.66171
6.51218
6.37141
6.5122
6.66173
6.62011
6.47258
6.33416
6.47258
6.62011
6.57423
6.42868
6.29254
6.42868
6.57422
6.52527
6.38162
6.24769
6.38161
6.52525
6.47421
6.3324
6.20063
6.33239
6.47419
6.42205
6.28197
6.15233
6.28197
6.42204
6.36972
6.23125
6.10369
6.23125
6.36971
6.31825
6.18121
6.0557
6.1812
6.31824
6.26865
6.1328
6.00929
6.13281
6.26866
6.22201
6.08704
5.96547
6.08705
6.22201
6.17948
6.04502
5.92531
6.04504
6.1795
6.14237
6.00794
5.88999
6.00796
6.14241
6.11212
5.9771
5.86079
5.97712
6.11216
6.09041
5.95402
5.83917
5.95404
6.09044
6.07914
5.94039
5.82675
5.94041
6.07916
6.08049
5.93816
5.82542
5.93818
6.08052
6.09659
5.94909
5.83677
5.94912
6.09664
6.13145
5.97641
5.86389
5.97645
6.13151
6.18841
6.02296
5.90929
6.023
6.18848
6.27127
6.09139
5.97531
6.09143
6.27134
6.3841
6.18437
6.06411
6.18441
6.38416
6.53037
6.30354
6.17671
6.30357
6.53042
6.71145
6.44795
6.31143
6.44797
6.71149
6.92326
6.61128
6.46138
6.6113
6.92329
7.15302
6.77825
6.61124
6.77827
7.15305
7.37072
6.92007
6.73439
6.92009
7.37075
4.30875
4.22266
3.9696
4.22267
4.30876
4.98002
4.80623
4.57669
4.80625
4.98005
5.37899
5.19936
4.97482
5.19938
5.37902
5.63278
5.45326
5.23637
5.45329
5.63282
5.79725
5.62066
5.41054
5.62068
5.79728
5.90469
5.73095
5.52664
5.73098
5.90473
5.97291
5.8018
5.60247
5.80182
5.97293
6.01294
5.84427
5.64928
5.84428
6.01294
6.032
5.86559
5.67444
5.86559
6.03192
6.03501
5.87076
5.68307
5.87073
6.03491
6.02639
5.86406
5.67943
5.86404
6.02639
6.0076
5.84737
5.66581
5.84738
6.00777
5.98086
5.82252
5.64373
5.82253
5.98095
5.94796
5.79147
5.61529
5.79143
5.94786
5.90994
5.75539
5.58176
5.75531
5.90975
5.86809
5.71548
5.54435
5.71539
5.86792
5.82357
5.6728
5.5041
5.6727
5.8234
5.77717
5.62817
5.46188
5.62807
5.77695
5.72954
5.58238
5.4185
5.58232
5.72946
5.68165
5.53627
5.3748
5.53621
5.68155
5.63449
5.49076
5.33168
5.49071
5.63439
5.58901
5.44671
5.29002
5.4467
5.58898
5.54612
5.40505
5.25074
5.40505
5.54606
5.50693
5.36682
5.21488
5.36685
5.507
5.47278
5.33319
5.18358
5.33324
5.47294
5.44506
5.30548
5.15815
5.3055
5.44518
5.42548
5.28523
5.14014
5.28524
5.42554
5.41607
5.27434
5.13138
5.27432
5.41601
5.41916
5.27503
5.13402
5.27503
5.41909
5.43774
5.28966
5.15041
5.28969
5.43776
5.47718
5.32301
5.18508
5.32307
5.47732
5.5426
5.37948
5.24212
5.37955
5.54274
5.64101
5.46474
5.32687
5.46481
5.64118
5.78196
5.5863
5.44616
5.58636
5.78209
5.97784
5.75339
5.60817
5.75343
5.97792
6.2449
5.97642
5.82156
5.97645
6.24494
6.60069
6.26376
6.09208
6.26378
6.60073
7.05608
6.61486
6.41633
6.61488
7.0561
7.58798
6.99423
6.75902
6.99425
7.58801
3.21001
3.24973
2.96644
3.24973
3.20999
3.92644
3.8106
3.53866
3.8106
3.92644
4.30654
4.1651
3.89005
4.1651
4.30654
4.5284
4.38039
4.11074
4.3804
4.52841
4.66738
4.5184
4.25416
4.5184
4.66739
4.75735
4.60816
4.34872
4.60817
4.75736
4.81416
4.66539
4.41024
4.66542
4.8139
4.84766
4.69954
4.44825
4.69954
4.84712
4.86398
4.71664
4.46883
4.7165
4.86246
4.86613
4.72055
4.47608
4.72043
4.86468
4.85991
4.71532
4.47367
4.71529
4.85997
4.84502
4.70207
4.46349
4.70238
4.84765
4.82507
4.68243
4.44637
4.68264
4.82624
4.80042
4.65792
4.42414
4.65764
4.79955
4.77004
4.62897
4.39775
4.62855
4.76883
4.73686
4.59698
4.36824
4.59665
4.73627
4.70278
4.56311
4.33658
4.5628
4.70235
4.66792
4.52765
4.30331
4.5273
4.66633
4.62974
4.49082
4.26897
4.49073
4.6301
4.59118
4.45368
4.23419
4.45346
4.59084
4.55353
4.41695
4.19986
4.41675
4.55295
4.51757
4.38137
4.16673
4.38138
4.51776
4.48333
4.34773
4.13551
4.34762
4.48236
4.45143
4.31682
4.10715
4.31693
4.45208
4.42468
4.28969
4.08262
4.29004
4.4262
4.40326
4.26753
4.06304
4.26775
4.40437
4.38919
4.25174
4.04988
4.25176
4.39018
4.38378
4.24389
4.04485
4.24366
4.38341
4.38801
4.2458
4.04959
4.24559
4.38694
4.40621
4.26033
4.06709
4.26042
4.40569
4.44551
4.29306
4.10246
4.29328
4.44607
4.51054
4.34881
4.16055
4.34899
4.51113
4.60909
4.43489
4.24874
4.43514
4.6102
4.75434
4.5626
4.37784
4.56275
4.75482
4.96058
4.74886
4.56458
4.74894
4.96075
5.27114
5.02386
4.83628
5.0239
5.27121
5.75736
5.43476
5.23414
5.43478
5.75739
6.53004
6.04542
5.809
6.04544
6.53006
7.73709
6.91485
6.61868
6.91487
7.73711
0.944444
1.18356
1.07956
1.18356
0.94443
1.50871
1.51986
1.41268
1.51985
1.5087
1.73378
1.69408
1.58093
1.69407
1.73378
1.84823
1.79759
1.68444
1.79758
1.84822
1.91764
1.86411
1.75199
1.86411
1.91763
1.963
1.90832
1.79725
1.90832
1.963
1.99259
1.93749
1.82749
1.9375
1.99256
2.01109
1.95586
1.84696
1.95588
2.01102
2.02147
1.96619
1.85838
1.9662
2.0211
2.02513
1.97017
1.86355
1.97016
2.02478
2.02488
1.96973
1.86397
1.96963
2.02471
2.02112
1.966
1.8613
1.96595
2.02172
2.01423
1.95863
1.85503
1.95864
2.01466
2.00535
1.94899
1.84626
1.94885
2.00488
1.99376
1.93729
1.8356
1.93707
1.99307
1.98072
1.92407
1.82335
1.92385
1.98026
1.96745
1.90993
1.81003
1.9097
1.96697
1.95359
1.895
1.79596
1.8948
1.95284
1.93815
1.87939
1.78136
1.87932
1.93825
1.92273
1.86366
1.76676
1.86352
1.92236
1.9076
1.84811
1.75243
1.848
1.90721
1.893
1.83305
1.73859
1.83309
1.89323
1.87935
1.81891
1.72556
1.81888
1.87897
1.86683
1.80606
1.71376
1.8061
1.86702
1.85634
1.79499
1.70364
1.79511
1.85701
1.84825
1.78628
1.6957
1.7863
1.84854
1.84339
1.78065
1.6906
1.78057
1.84348
1.84246
1.7791
1.68937
1.77899
1.84207
1.84524
1.78219
1.69312
1.78216
1.84486
1.85434
1.79211
1.70351
1.79223
1.85453
1.87361
1.81226
1.72371
1.81236
1.87391
1.90408
1.84515
1.75637
1.84524
1.9043
1.94907
1.89586
1.80641
1.896
1.94966
2.01384
1.97123
1.88055
1.97132
2.01407
2.13182
2.08289
1.98935
2.08293
2.13188
2.30888
2.24978
2.15105
2.2498
2.3089
2.58224
2.50465
2.39655
2.50466
2.58225
3.11696
2.93537
2.79527
2.93538
3.11697
4.97972
4.19621
3.93489
4.19622
4.97972
1.10447
1.01579
0.959338
1.01579
1.10447
2.78303
2.66043
2.45868
2.66044
2.78303
3.48357
3.379
3.23818
3.37901
3.48359
3.96942
3.87429