/*--------------------------------*- C++ -*----------------------------------*\
  =========                 |
  \\      /  F ield         | OpenFOAM: The Open Source CFD Toolbox
   \\    /   O peration     | Website:  https://openfoam.org
    \\  /    A nd           | Version:  9
     \\/     M anipulation  |
\*---------------------------------------------------------------------------*/
FoamFile
{
    format      ascii;
    class       volScalarField;
    location    "3";
    object      p;
}
// * * * * * * * * * * * * * * * * * * * * * * * * * * * * * * * * * * * * * //

dimensions      [0 2 -2 0 0 0 0];

internalField   nonuniform List<scalar> 
4545
(
19.9313
20.1751
20.1299
20.1751
19.9313
19.9127
20.2167
20.1706
20.2167
19.9127
19.8666
20.2804
20.2346
20.2803
19.8665
19.8037
20.3184
20.288
20.3183
19.8036
19.7611
20.3391
20.3269
20.3391
19.761
19.7347
20.351
20.3535
20.3512
19.7342
19.7185
20.3568
20.37
20.3572
19.7189
19.7052
20.3605
20.3805
20.3603
19.7093
19.6945
20.3624
20.3862
20.3611
19.7029
19.6922
20.3599
20.3874
20.3591
19.6995
19.6889
20.3576
20.3872
20.3576
19.6933
19.6842
20.3552
20.3857
20.3548
19.6871
19.6817
20.351
20.3823
20.351
19.6812
19.6813
20.3446
20.3767
20.3455
19.6771
19.6795
20.3376
20.3701
20.3389
19.6741
19.675
20.3307
20.3623
20.3311
19.6727
19.6697
20.3224
20.3534
20.3215
19.6725
19.6625
20.3145
20.3447
20.314
19.6665
19.6563
20.3055
20.3349
20.305
19.6593
19.65
20.2952
20.3245
20.2943
19.6529
19.6426
20.2851
20.3135
20.2847
19.6439
19.6388
20.2722
20.3007
20.2731
19.6366
19.6333
20.2596
20.2875
20.2611
19.6303
19.6229
20.25
20.2747
20.2481
19.6266
19.6197
20.237
20.2612
20.2351
19.6223
19.619
20.224
20.2486
20.2246
19.6152
19.6169
20.2131
20.2365
20.2147
19.6087
19.615
20.2034
20.2244
20.2039
19.6075
19.6141
20.1953
20.2136
20.1958
19.6057
19.6151
20.1889
20.2046
20.1908
19.6027
19.6185
20.1844
20.1966
20.1846
19.6108
19.6237
20.1818
20.1908
20.1816
19.6189
19.6329
20.1816
20.1873
20.182
19.6285
19.647
20.1834
20.1854
20.1835
19.6446
19.6632
20.1878
20.1857
20.1874
19.6623
19.6836
20.1939
20.1881
20.1935
19.6831
19.7071
20.2017
20.1925
20.2015
19.7068
19.7335
20.2111
20.1991
20.211
19.7334
19.7624
20.2212
20.2082
20.2211
19.7623
20.331
19.9339
20.0031
19.9339
20.331
20.3913
19.8962
19.9588
19.8962
20.3912
20.2652
19.9793
20.0309
19.9793
20.2651
20.188
20.009
20.0778
20.009
20.1879
20.148
20.0221
20.1102
20.0221
20.1479
20.1231
20.0288
20.1316
20.0289
20.1232
20.1066
20.032
20.1439
20.0322
20.1069
20.0955
20.0331
20.1512
20.0332
20.0958
20.0876
20.0327
20.1548
20.0326
20.0879
20.0807
20.0304
20.1555
20.0305
20.0813
20.0749
20.0276
20.1545
20.0278
20.0756
20.0697
20.0242
20.1522
20.0242
20.0698
20.0643
20.0199
20.1486
20.0198
20.0638
20.0587
20.0147
20.1438
20.0148
20.0579
20.052
20.0089
20.1383
20.0091
20.0517
20.0452
20.003
20.1322
20.0031
20.0456
20.0382
19.9965
20.1255
19.9963
20.0389
20.0315
19.9899
20.1186
19.9899
20.0325
20.0247
19.983
20.1112
19.9829
20.0249
20.0166
19.9756
20.1035
19.9754
20.0164
20.0088
19.9684
20.0957
19.9684
20.0091
20.0017
19.9611
20.0877
19.9613
20.0016
19.9948
19.9544
20.0801
19.9546
19.9944
19.9888
19.949
20.0732
19.9485
19.9882
19.9829
19.9438
20.0669
19.9433
19.983
19.9784
19.9398
20.0616
19.9397
19.9785
19.9761
19.9376
20.0585
19.9377
19.9756
19.9754
19.9372
20.058
19.9371
19.9748
19.9767
19.9388
20.0608
19.9388
19.976
19.9803
19.9425
20.0627
19.9427
19.9799
19.9867
19.9485
20.0666
19.9484
19.986
19.9959
19.9568
20.0727
19.9566
19.9952
20.008
19.9674
20.0806
19.9673
20.0072
20.0229
19.9802
20.0903
19.98
20.0222
20.0404
19.9947
20.1015
19.9945
20.04
20.0602
20.0108
20.114
20.0106
20.0599
20.0814
20.0281
20.1277
20.028
20.0813
20.1036
20.0461
20.1424
20.046
20.1036
20.128
20.0629
20.1579
20.0629
20.1279
20.458
19.8741
19.8726
19.8741
20.458
20.6263
19.7856
19.7406
19.7856
20.6262
20.5049
19.8737
19.8103
19.8737
20.5048
20.4351
19.899
19.851
19.899
20.435
20.4039
19.9065
19.8755
19.9064
20.4038
20.3852
19.9082
19.8901
19.9082
20.385
20.3722
19.9076
19.8981
19.9078
20.3717
20.3637
19.9052
19.9015
19.9056
20.3627
20.3581
19.9012
19.9018
19.9027
20.3555
20.3522
19.8974
19.9004
19.8992
20.349
20.3472
19.8926
19.8971
19.894
20.3445
20.343
19.8866
19.8922
19.8872
20.3413
20.3377
19.8806
19.8866
19.8799
20.3383
20.3312
19.8751
19.881
19.8733
20.3336
20.326
19.868
19.8748
19.8668
20.3278
20.3208
19.8607
19.8687
19.8611
20.3202
20.3145
19.8539
19.8629
19.8556
20.312
20.3077
19.8472
19.8567
19.849
20.3054
20.3001
19.8412
19.8503
19.8413
20.3003
20.2947
19.8335
19.8435
19.8333
20.2956
20.2895
19.8265
19.8374
19.8266
20.2904
20.2822
19.8224
19.8326
19.821
20.2851
20.2764
19.8188
19.8289
19.8167
20.2799
20.2743
19.8144
19.8262
19.8148
20.2741
20.2722
19.8124
19.8249
19.8141
20.27
20.2711
19.8124
19.8244
19.8128
20.2703
20.2716
19.8142
19.8252
19.8131
20.2728
20.2744
19.8177
19.8279
19.817
20.2749
20.2795
19.8231
19.8331
19.8222
20.2803
20.2872
19.8315
19.8434
19.8299
20.2891
20.2971
19.8417
19.8547
19.8408
20.2983
20.3092
19.854
19.8671
19.8529
20.3106
20.3242
19.8677
19.8806
19.8663
20.3258
20.3408
19.8831
19.8955
19.8821
20.342
20.3588
19.8997
19.9112
19.8993
20.3592
20.377
19.9175
19.9275
19.9174
20.3771
20.3947
19.9362
19.9437
19.9361
20.3948
20.413
19.9538
19.9586
19.9538
20.413
20.4383
19.9625
19.9694
19.9625
20.4384
20.4409
19.9076
19.8509
19.9076
20.4409
20.6217
19.8241
19.6994
19.8241
20.6217
20.4937
19.9224
19.7787
19.9223
20.4936
20.4238
19.9505
19.8246
19.9505
20.4238
20.3937
19.9584
19.849
19.9584
20.3936
20.3761
19.9598
19.8619
19.9597
20.3759
20.3643
19.9582
19.8678
19.9581
20.364
20.3561
19.9551
19.8695
19.9551
20.3555
20.3498
19.951
19.8685
19.9512
20.3488
20.3441
19.9465
19.8659
19.9466
20.3429
20.3389
19.9413
19.862
19.9413
20.3378
20.3338
19.9356
19.8571
19.9354
20.3332
20.3283
19.9296
19.8516
19.9292
20.3285
20.3224
19.9234
19.846
19.9229
20.3231
20.3169
19.9168
19.8401
19.9166
20.3172
20.3112
19.9102
19.8343
19.9104
20.3108
20.3051
19.9038
19.8286
19.9043
20.3041
20.2987
19.8975
19.823
19.898
20.298
20.2924
19.8915
19.8176
19.8918
20.2923
20.2868
19.8856
19.8124
19.8859
20.2871
20.2817
19.8805
19.8079
19.8806
20.2822
20.2769
19.8765
19.8044
19.8764
20.2778
20.2732
19.8735
19.8021
19.8732
20.2742
20.2713
19.8714
19.8011
19.8715
20.2714
20.2707
19.8709
19.8014
19.8712
20.2702
20.2714
19.8722
19.8033
19.8723
20.2711
20.2739
19.8753
19.8072
19.8751
20.274
20.2784
19.8805
19.8126
19.8803
20.2786
20.285
19.8872
19.8187
19.887
20.2853
20.2936
19.8946
19.827
19.8943
20.2941
20.3043
19.9042
19.837
19.9039
20.3048
20.3168
19.9155
19.8482
19.9151
20.3174
20.3313
19.928
19.8602
19.9277
20.3319
20.3473
19.9414
19.8727
19.9412
20.3477
20.3642
19.9553
19.8851
19.9553
20.3645
20.3816
19.9694
19.8969
19.9694
20.3817
20.3985
19.9836
19.9075
19.9836
20.3986
20.4165
19.9958
19.9157
19.9958
20.4166
20.4435
19.9966
19.9179
19.9967
20.4436
20.4119
19.9333
19.8573
19.9333
20.4119
20.5799
19.8578
19.7071
19.8578
20.5799
20.4377
19.9612
19.8065
19.9612
20.4377
20.3632
19.9922
19.8603
19.9921
20.3631
20.3317
20.0017
19.8866
20.0016
20.3317
20.3138
20.004
19.8993
20.004
20.3137
20.3021
20.0031
19.9045
20.003
20.3019
20.2939
20.0004
19.9054
20.0003
20.2936
20.2874
19.9967
19.9039
19.9966
20.287
20.2818
19.9924
19.9008
19.9923
20.2813
20.2766
19.9876
19.8966
19.9874
20.2761
20.2715
19.9823
19.8918
19.9821
20.2712
20.2663
19.9768
19.8864
19.9766
20.2662
20.261
19.971
19.8809
19.9709
20.2611
20.2557
19.9651
19.8751
19.965
20.2556
20.2503
19.9591
19.8694
19.9591
20.2501
20.2449
19.9532
19.8638
19.9533
20.2446
20.2396
19.9475
19.8583
19.9476
20.2393
20.2344
19.9421
19.853
19.9422
20.2343
20.2298
19.937
19.8482
19.9371
20.2298
20.2257
19.9326
19.8439
19.9327
20.2258
20.2223
19.929
19.8405
19.929
20.2226
20.22
19.9263
19.838
19.9263
20.2203
20.219
19.9247
19.8366
19.9247
20.219
20.2193
19.9243
19.8365
19.9243
20.2192
20.221
19.9253
19.8375
19.9253
20.221
20.2244
19.9277
19.84
19.9277
20.2244
20.2295
19.9316
19.8438
19.9316
20.2296
20.2366
19.937
19.8488
19.937
20.2367
20.2454
19.9437
19.8551
19.9437
20.2457
20.2562
19.9517
19.8623
19.9517
20.2565
20.2686
19.9607
19.8703
19.9607
20.2689
20.2826
19.9703
19.8784
19.9703
20.2829
20.2981
19.9802
19.8863
19.9803
20.2983
20.3147
19.9901
19.8933
19.9901
20.3149
20.3321
19.9994
19.8989
19.9995
20.3323
20.3498
20.0084
19.9025
20.0084
20.3499
20.3699
20.0149
19.9023
20.015
20.37
20.4019
20.0094
19.8934
20.0094
20.4019
20.3916
19.9486
19.8697
19.9486
20.3916
20.5478
19.8772
19.7266
19.8772
20.5478
20.3943
19.985
19.8397
19.985
20.3943
20.3155
20.0184
19.8992
20.0184
20.3154
20.2825
20.0293
19.928
20.0292
20.2824
20.264
20.0324
19.9419
20.0324
20.264
20.2522
20.032
19.9477
20.032
20.2521
20.244
20.0299
19.949
20.0298
20.2438
20.2375
20.0267
19.9477
20.0266
20.2373
20.232
20.0229
19.9449
20.0227
20.2317
20.227
20.0185
19.9411
20.0184
20.2267
20.2222
20.0138
19.9367
20.0137
20.222
20.2174
20.0089
19.9318
20.0088
20.2173
20.2125
20.0038
19.9268
20.0037
20.2125
20.2077
19.9986
19.9216
19.9985
20.2076
20.2029
19.9933
19.9163
19.9933
20.2028
20.1982
19.9882
19.9111
19.9881
20.198
20.1937
19.9831
19.906
19.9831
20.1935
20.1893
19.9783
19.9012
19.9783
20.1892
20.1854
19.9739
19.8966
19.9739
20.1854
20.1821
19.9699
19.8926
19.9699
20.1821
20.1794
19.9666
19.8892
19.9666
20.1795
20.1777
19.964
19.8865
19.964
20.1777
20.1769
19.9623
19.8846
19.9623
20.1769
20.1773
19.9616
19.8836
19.9616
20.1773
20.179
19.9619
19.8836
19.9619
20.179
20.182
19.9632
19.8845
19.9633
20.182
20.1865
19.9657
19.8863
19.9657
20.1866
20.1925
19.9692
19.889
19.9692
20.1927
20.2001
19.9737
19.8924
19.9737
20.2003
20.2093
19.9789
19.8962
19.979
20.2095
20.22
19.9847
19.9001
19.9847
20.2202
20.2322
19.9907
19.9037
19.9908
20.2324
20.2459
19.9967
19.9064
19.9967
20.2461
20.2612
20.0022
19.9078
20.0023
20.2613
20.2777
20.0071
19.9071
20.0071
20.2779
20.2953
20.0114
19.904
20.0115
20.2955
20.3167
20.0134
19.8965
20.0134
20.3167
20.3521
20.003
19.8794
20.003
20.3521
20.3778
19.9573
19.8813
19.9573
20.3778
20.5261
19.8884
19.744
19.8884
20.5261
20.3652
19.9997
19.8654
19.9997
20.3652
20.2832
20.0349
19.9291
20.0348
20.2832
20.2491
20.0467
19.9601
20.0467
20.249
20.2303
20.0505
19.9753
20.0505
20.2302
20.2183
20.0507
19.9818
20.0506
20.2183
20.2102
20.0491
19.9837
20.049
20.21
20.2039
20.0464
19.983
20.0463
20.2037
20.1986
20.0432
19.9809
20.0431
20.1985
20.1939
20.0395
19.9777
20.0394
20.1937
20.1895
20.0355
19.974
20.0354
20.1893
20.1851
20.0312
19.9699
20.0312
20.185
20.1808
20.0269
19.9655
20.0268
20.1807
20.1766
20.0224
19.9611
20.0224
20.1765
20.1724
20.018
19.9565
20.0179
20.1723
20.1683
20.0135
19.9519
20.0135
20.1682
20.1644
20.0092
19.9475
20.0091
20.1642
20.1606
20.005
19.9431
20.0049
20.1605
20.1572
20.001
19.939
20.001
20.1571
20.1542
19.9974
19.9352
19.9973
20.1542
20.1517
19.9942
19.9317
19.9941
20.1517
20.1499
19.9915
19.9287
19.9914
20.1499
20.1489
19.9893
19.9262
19.9893
20.1488
20.1486
19.9878
19.9242
19.9878
20.1486
20.1493
19.9868
19.9227
19.9869
20.1493
20.1509
19.9866
19.9218
19.9866
20.1509
20.1537
19.987
19.9213
19.987
20.1537
20.1576
19.988
19.9211
19.988
20.1577
20.1628
19.9895
19.9211
19.9896
20.1629
20.1692
19.9914
19.9211
19.9914
20.1694
20.1771
19.9934
19.9207
19.9935
20.1772
20.1864
19.9954
19.9195
19.9955
20.1866
20.1974
19.9971
19.9171
19.9972
20.1975
20.2102
19.9982
19.913
19.9983
20.2103
20.2248
19.9987
19.9066
19.9988
20.2249
20.2413
19.9988
19.8974
19.9989
20.2414
20.2628
19.9968
19.8838
19.9968
20.2628
20.3001
19.9826
19.8605
19.9826
20.3002
20.3688
19.9619
19.8894
19.9619
20.3688
20.5122
19.8946
19.7561
19.8946
20.5122
20.3467
20.0084
19.8826
20.0084
20.3467
20.2628
20.0446
19.9491
20.0446
20.2628
20.228
20.0572
19.9817
20.0572
20.228
20.2091
20.0616
19.9979
20.0616
20.209
20.1972
20.0623
20.0052
20.0623
20.1972
20.1893
20.0612
20.0078
20.0612
20.1892
20.1833
20.0592
20.0077
20.0591
20.1832
20.1784
20.0566
20.0062
20.0565
20.1783
20.1741
20.0536
20.0038
20.0535
20.174
20.1702
20.0503
20.0009
20.0502
20.1701
20.1665
20.0468
19.9976
20.0468
20.1664
20.1628
20.0433
19.9941
20.0433
20.1627
20.1592
20.0397
19.9905
20.0397
20.1591
20.1557
20.0361
19.9868
20.036
20.1556
20.1523
20.0324
19.983
20.0323
20.1522
20.149
20.0287
19.9792
20.0287
20.1488
20.1457
20.0251
19.9755
20.0251
20.1456
20.1427
20.0216
19.9718
20.0216
20.1426
20.1399
20.0182
19.9681
20.0182
20.1398
20.1374
20.015
19.9646
20.015
20.1373
20.1352
20.012
19.9613
20.012
20.1352
20.1335
20.0092
19.9581
20.0092
20.1334
20.1322
20.0066
19.9549
20.0066
20.1321
20.1313
20.0042
19.9518
20.0042
20.1313
20.131
20.0019
19.9488
20.002
20.1311
20.1314
19.9999
19.9457
19.9999
20.1315
20.1326
19.9979
19.9424
19.998
20.1326
20.1345
19.996
19.9388
19.9961
20.1346
20.1375
19.994
19.9347
19.9941
20.1376
20.1416
19.9919
19.9298
19.992
20.1417
20.1471
19.9894
19.9237
19.9895
20.1472
20.1543
19.9865
19.9161
19.9865
20.1544
20.1636
19.983
19.9065
19.983
20.1637
20.1754
19.9789
19.8946
19.9789
20.1755
20.1898
19.9747
19.8801
19.9748
20.1898
20.2101
19.9689
19.8611
19.9689
20.2102
20.248
19.9514
19.8328
19.9514
20.248
20.3636
19.964
19.8936
19.964
20.3636
20.5045
19.8976
19.7627
19.8976
20.5045
20.3367
20.0129
19.8922
20.0129
20.3367
20.2518
20.0499
19.9604
20.0499
20.2518
20.2168
20.0629
19.994
20.0629
20.2168
20.1979
20.0678
20.0109
20.0678
20.1979
20.1863
20.069
20.0189
20.069
20.1862
20.1786
20.0684
20.022
20.0684
20.1786
20.173
20.067
20.0226
20.067
20.173
20.1687
20.065
20.0218
20.065
20.1686
20.165
20.0627
20.0202
20.0627
20.1649
20.1617
20.0602
20.0181
20.0602
20.1617
20.1587
20.0576
20.0156
20.0576
20.1587
20.1558
20.055
20.0131
20.0549
20.1557
20.153
20.0522
20.0104
20.0522
20.1529
20.1503
20.0495
20.0075
20.0494
20.1502
20.1476
20.0466
20.0046
20.0466
20.1475
20.1449
20.0438
20.0016
20.0437
20.1448
20.1423
20.0408
19.9985
20.0408
20.1422
20.1396
20.0378
19.9953
20.0377
20.1396
20.137
20.0347
19.9919
20.0346
20.137
20.1344
20.0314
19.9884
20.0314
20.1344
20.1319
20.0281
19.9847
20.0281
20.1318
20.1293
20.0246
19.9808
20.0245
20.1293
20.1268
20.0208
19.9765
20.0208
20.1268
20.1243
20.0167
19.9717
20.0167
20.1243
20.1218
20.0124
19.9665
20.0124
20.1218
20.1195
20.0076
19.9607
20.0076
20.1195
20.1173
20.0024
19.9542
20.0025
20.1174
20.1155
19.9968
19.9467
19.9968
20.1156
20.1143
19.9905
19.9383
19.9906
20.1144
20.1139
19.9837
19.9285
19.9838
20.114
20.1147
19.9763
19.9172
19.9763
20.1148
20.1171
19.9682
19.9042
19.9682
20.1172
20.1219
19.9595
19.8891
19.9595
20.122
20.1295
19.9504
19.8716
19.9504
20.1295
20.1405
19.9415
19.8516
19.9415
20.1405
20.1583
19.9315
19.8276
19.9315
20.1583
20.1948
19.9107
19.7949
19.9107
20.1948
20.3615
19.964
19.8945
19.964
20.3615
20.5018
19.8983
19.7646
19.8983
20.5018
20.3334
20.0142
19.8952
20.0143
20.3335
20.2485
20.0516
19.9641
20.0516
20.2485
20.2135
20.065
19.9983
20.065
20.2135
20.1949
20.0703
20.0156
20.0703
20.1949
20.1836
20.0719
20.024
20.0719
20.1836
20.1764
20.0718
20.0277
20.0718
20.1764
20.1713
20.0709
20.0289
20.0709
20.1713
20.1675
20.0696
20.0288
20.0696
20.1675
20.1645
20.068
20.0279
20.068
20.1645
20.162
20.0663
20.0265
20.0663
20.162
20.1598
20.0646
20.025
20.0645
20.1598
20.1578
20.0628
20.0233
20.0628
20.1577
20.1559
20.061
20.0215
20.061
20.1558
20.154
20.0592
20.0196
20.0591
20.154
20.1522
20.0573
20.0176
20.0572
20.1522
20.1504
20.0552
20.0154
20.0552
20.1503
20.1484
20.053
20.0131
20.053
20.1483
20.1463
20.0505
20.0105
20.0505
20.1463
20.144
20.0478
20.0075
20.0478
20.144
20.1415
20.0447
20.0041
20.0447
20.1414
20.1386
20.0411
20.0002
20.0411
20.1386
20.1354
20.037
19.9957
20.037
20.1354
20.1317
20.0322
19.9903
20.0321
20.1317
20.1275
20.0265
19.9841
20.0265
20.1275
20.1229
20.02
19.9767
20.02
20.1229
20.1177
20.0125
19.9682
20.0125
20.1178
20.1121
20.004
19.9583
20.004
20.1122
20.1061
19.9944
19.947
19.9944
20.1062
20.1001
19.9836
19.934
19.9836
20.1002
20.0944
19.9716
19.9191
19.9717
20.0945
20.0895
19.9586
19.9022
19.9586
20.0896
20.086
19.9445
19.8831
19.9446
20.0861
20.0848
19.9298
19.8619
19.9298
20.0849
20.0867
19.9147
19.8383
19.9148
20.0868
20.0925
19.9003
19.8124
19.9003
20.0926
20.1061
19.8854
19.7832
19.8854
20.1061
20.1395
19.8608
19.746
19.8608
20.1395
20.3622
19.9625
19.8921
19.9625
20.3622
20.5037
19.8969
19.762
19.8969
20.5037
20.3366
20.0128
19.8921
20.0128
20.3366
20.2522
20.0502
19.9608
20.0503
20.2523
20.2177
20.0639
19.995
20.0639
20.2178
20.1995
20.0694
20.0125
20.0694
20.1995
20.1886
20.0713
20.0212
20.0713
20.1886
20.1818
20.0716
20.0252
20.0716
20.1818
20.1773
20.0712
20.0269
20.0712
20.1773
20.1741
20.0705
20.0273
20.0705
20.1741
20.1719
20.0696
20.0271
20.0696
20.1719
20.1702
20.0687
20.0265
20.0686
20.1702
20.1689
20.0678
20.0258
20.0678
20.1689
20.1678
20.0669
20.025
20.0669
20.1678
20.1669
20.0661
20.0242
20.0661
20.1669
20.1661
20.0652
20.0233
20.0652
20.166
20.1654
20.0643
20.0222
20.0643
20.1653
20.1645
20.0632
20.0209
20.0631
20.1644
20.1634
20.0618
20.0195
20.0618
20.1633
20.162
20.0601
20.0176
20.0601
20.162
20.1603
20.058
20.0153
20.0579
20.1603
20.1581
20.0552
20.0122
20.0552
20.1581
20.1552
20.0517
20.0084
20.0517
20.1552
20.1516
20.0473
20.0036
20.0472
20.1516
20.1471
20.0417
19.9975
20.0417
20.1471
20.1416
20.0348
19.99
20.0348
20.1416
20.1349
20.0264
19.9808
20.0264
20.135
20.1271
20.0163
19.9698
20.0164
20.1271
20.1179
20.0045
19.9567
20.0046
20.118
20.1076
19.9909
19.9415
19.9909
20.1077
20.0964
19.9753
19.9237
19.9753
20.0965
20.0847
19.9577
19.9033
19.9577
20.0848
20.0729
19.9383
19.8803
19.9383
20.073
20.062
19.9173
19.8545
19.9174
20.0621
20.053
19.8953
19.826
19.8953
20.0531
20.0471
19.8728
19.7952
19.8729
20.0472
20.0454
19.8513
19.7625
19.8513
20.0455
20.0523
19.8301
19.727
19.8302
20.0524
20.0805
19.8006
19.6848
19.8007
20.0806
20.3661
19.9591
19.8866
19.9591
20.3661
20.5107
19.8933
19.7548
19.8933
20.5107
20.3466
20.0082
19.8825
20.0082
20.3466
20.2637
20.0454
19.9498
20.0454
20.2637
20.2299
20.059
19.9835
20.059
20.2299
20.2121
20.0646
20.0008
20.0646
20.2121
20.2017
20.0667
20.0096
20.0667
20.2017
20.1954
20.0673
20.0138
20.0673
20.1954
20.1914
20.0673
20.0158
20.0673
20.1914
20.1889
20.067
20.0167
20.0671
20.189
20.1875
20.0668
20.0171
20.0668
20.1875
20.1867
20.0666
20.0172
20.0666
20.1867
20.1863
20.0665
20.0173
20.0665
20.1863
20.1862
20.0666
20.0174
20.0666
20.1862
20.1864
20.0667
20.0175
20.0667
20.1864
20.1867
20.0669
20.0176
20.0669
20.1867
20.1871
20.067
20.0176
20.067
20.187
20.1874
20.067
20.0173
20.0669
20.1874
20.1875
20.0666
20.0168
20.0666
20.1874
20.1871
20.0659
20.016
20.0659
20.1871
20.1863
20.0646
20.0146
20.0646
20.1862
20.1848
20.0626
20.0123
20.0626
20.1848
20.1824
20.0596
20.0089
20.0596
20.1824
20.179
20.0553
20.0043
20.0553
20.179
20.1742
20.0495
19.9981
20.0496
20.1742
20.1679
20.042
19.9899
20.042
20.1679
20.1598
20.0323
19.9795
20.0323
20.1598
20.1497
20.0202
19.9666
20.0203
20.1497
20.1374
20.0055
19.9507
20.0056
20.1375
20.1229
19.9879
19.9317
19.988
20.123
20.1063
19.9674
19.9092
19.9674
20.1064
20.0877
19.9437
19.883
19.9438
20.0878
20.0679
19.9172
19.8531
19.9172
20.068
20.0478
19.888
19.8195
19.888
20.0479
20.0285
19.8568
19.7824
19.8569
20.0286
20.0116
19.8248
19.7425
19.8249
20.0117
19.9991
19.7937
19.7008
19.7938
19.9992
19.9958
19.7639
19.6572
19.764
19.9959
20.0158
19.7277
19.6087
19.7278
20.0159
20.374
19.9534
19.8775
19.9534
20.374
20.524
19.8866
19.7424
19.8866
20.524
20.365
19.9995
19.8653
19.9995
20.365
20.2843
20.0359
19.9301
20.0359
20.2843
20.2515
20.0491
19.9626
20.0491
20.2516
20.2344
20.0545
19.9793
20.0546
20.2344
20.2244
20.0567
19.9879
20.0567
20.2244
20.2186
20.0574
19.9921
20.0574
20.2186
20.2152
20.0577
19.9944
20.0577
20.2152
20.2133
20.0579
19.9957
20.0579
20.2134
20.2126
20.0581
19.9965
20.0582
20.2127
20.2127
20.0586
19.9972
20.0586
20.2128
20.2133
20.0593
19.998
20.0593
20.2133
20.2143
20.0602
19.999
20.0602
20.2143
20.2156
20.0613
20
20.0613
20.2155
20.2171
20.0625
20.0011
20.0625
20.2171
20.2187
20.0638
20.0022
20.0638
20.2187
20.2204
20.0649
20.0031
20.0649
20.2204
20.2218
20.0658
20.0038
20.0658
20.2218
20.2228
20.0663
20.0042
20.0663
20.2227
20.2232
20.0663
20.0041
20.0663
20.2232
20.223
20.0654
20.003
20.0654
20.2229
20.2217
20.0634
20.0007
20.0634
20.2217
20.2191
20.06
19.997
20.06
20.2192
20.2149
20.0548
19.9913
20.0548
20.215
20.2087
20.0474
19.9834
20.0475
20.2088
20.2001
20.0374
19.9728
20.0374
20.2002
20.1887
20.0243
19.9589
20.0243
20.1888
20.1741
20.0075
19.9411
20.0076
20.1742
20.156
19.9867
19.919
19.9868
20.1561
20.1342
19.9615
19.8921
19.9615
20.1343
20.1086
19.9315
19.86
19.9316
20.1087
20.0795
19.8969
19.8225
19.8969
20.0796
20.0478
19.8578
19.7796
19.8579
20.0479
20.0148
19.8151
19.7317
19.8152
20.015
19.9826
19.7702
19.6798
19.7702
19.9827
19.9537
19.7255
19.6254
19.7255
19.9539
19.9345
19.6826
19.5699
19.6827
19.9346
19.9405
19.6358
19.5118
19.6358
19.9406
20.387
19.9441
19.8654
19.9441
20.387
20.5452
19.8752
19.7248
19.8752
20.5452
20.394
19.9848
19.8396
19.9848
20.3941
20.3166
20.0196
19.9004
20.0196
20.3167
20.2852
20.032
19.9309
20.032
20.2852
20.2686
20.0371
19.9467
20.0371
20.2687
20.2591
20.039
19.9548
20.039
20.2591
20.2537
20.0397
19.959
20.0397
20.2537
20.2507
20.0401
19.9613
20.0402
20.2508
20.2495
20.0406
19.9629
20.0406
20.2496
20.2495
20.0412
19.9641
20.0413
20.2496
20.2503
20.0422
19.9654
20.0423
20.2505
20.2518
20.0435
19.9668
20.0436
20.2519
20.2538
20.0452
19.9686
20.0453
20.2538
20.2562
20.0472
19.9706
20.0473
20.2561
20.2589
20.0495
19.9728
20.0495
20.2589
20.2618
20.0518
19.9751
20.0519
20.2618
20.2648
20.0543
19.9774
20.0543
20.2648
20.2677
20.0565
19.9795
20.0566
20.2677
20.2704
20.0585
19.9814
20.0586
20.2704
20.2725
20.0601
19.9828
20.0601
20.2725
20.274
20.0609
19.9835
20.0609
20.274
20.2745
20.0606
19.983
20.0606
20.2745
20.2738
20.0588
19.981
20.0588
20.2738
20.2712
20.0552
19.9771
20.0552
20.2713
20.2664
20.0492
19.9706
20.0492
20.2665
20.2588
20.0401
19.9611
20.0402
20.2588
20.2476
20.0274
19.9476
20.0274
20.2477
20.2323
20.0101
19.9295
20.0101
20.2323
20.212
19.9875
19.9058
19.9875
20.2121
20.186
19.9587
19.8756
19.9587
20.1861
20.1537
19.923
19.8382
19.923
20.1538
20.1148
19.8799
19.7928
19.88
20.1149
20.0695
19.8293
19.739
19.8293
20.0696
20.0187
19.7717
19.6772
19.7718
20.0188
19.9646
19.7087
19.6084
19.7088
19.9647
19.9105
19.6436
19.5351
19.6437
19.9106
19.8645
19.5794
19.4599
19.5794
19.8646
19.8454
19.5135
19.3843
19.5135
19.8455
20.4069
19.9287
19.8529
19.9287
20.4069
20.577
19.8558
19.7055
19.8558
20.577
20.4372
19.9611
19.8065
19.9611
20.4373
20.3641
19.9933
19.8616
19.9933
20.3641
20.3341
20.0044
19.8895
20.0044
20.3341
20.318
20.0087
19.9042
20.0087
20.3181
20.3087
20.0102
19.9118
20.0102
20.3088
20.3035
20.0107
19.9159
20.0107
20.3036
20.3009
20.011
19.9185
20.0111
20.301
20.3
20.0116
19.9204
20.0117
20.3002
20.3005
20.0125
19.9221
20.0126
20.3007
20.3019
20.0138
19.9239
20.0139
20.3022
20.304
20.0156
19.926
20.0157
20.3042
20.3068
20.0179
19.9285
20.018
20.3068
20.3101
20.0207
19.9316
20.0207
20.31
20.3138
20.0238
19.9349
20.0239
20.3138
20.3179
20.0273
19.9385
20.0274
20.318
20.3222
20.0309
19.9423
20.0311
20.3223
20.3266
20.0347
19.9462
20.0348
20.3267
20.331
20.0384
19.95
20.0384
20.331
20.335
20.0418
19.9535
20.0418
20.335
20.3387
20.0447
19.9564
20.0447
20.3386
20.3416
20.0467
19.9585
20.0467
20.3416
20.3434
20.0475
19.9593
20.0475
20.3435
20.3437
20.0466
19.9583
20.0466
20.3439
20.3419
20.0434
19.9549
20.0434
20.342
20.3371
20.0371
19.9483
20.0371
20.3372
20.3285
20.0267
19.9375
20.0268
20.3286
20.315
20.0112
19.9213
20.0113
20.315
20.2952
19.9892
19.8984
19.9892
20.2953
20.2678
19.9591
19.8672
19.9591
20.2679
20.231
19.9194
19.8259
19.9194
20.2312
20.1832
19.8686
19.7731
19.8686
20.1833
20.1229
19.8053
19.7073
19.8053
20.1231
20.0498
19.7288
19.6274
19.7288
20.0499
19.9645
19.6399
19.5338
19.64
19.9646
19.8702
19.5418
19.4289
19.5419
19.8703
19.7761
19.4391
19.3168
19.4392
19.7762
19.7056
19.3332
19.203
19.3332
19.7057
20.4359
19.9036
19.8472
19.9036
20.4359
20.6187
19.8225
19.6982
19.8225
20.6187
20.4929
19.9222
19.7788
19.9223
20.4929
20.424
19.9514
19.8256
19.9514
20.424
20.395
19.9606
19.8514
19.9606
20.395
20.3789
19.9637
19.866
19.9637
20.379
20.3693
19.9645
19.8743
19.9644
20.3695
20.3639
19.9646
19.8793
19.9645
20.364
20.3612
19.9647
19.8826
19.9647
20.3613
20.3603
19.9652
19.8852
19.9652
20.3607
20.3608
19.9662
19.8876
19.9662
20.3615
20.3624
19.9678
19.8902
19.9677
20.3633
20.3652
19.9697
19.8931
19.9697
20.3658
20.3687
19.9724
19.8966
19.9727
20.3686
20.3724
19.9759
19.9008
19.9762
20.3721
20.3768
19.9799
19.9054
19.9801
20.3768
20.3821
19.9842
19.9103
19.9844
20.3822
20.3876
19.989
19.9157
19.9892
20.3879
20.3934
19.9943
19.9215
19.9944
20.3936
20.3993
19.9997
19.9276
19.9998
20.3994
20.4054
20.0053
19.9338
20.0054
20.4052
20.4113
20.0108
19.9399
20.0108
20.4111
20.4172
20.0157
19.9454
20.0158
20.4169
20.4226
20.0198
19.9499
20.0198
20.4226
20.4268
20.0228
19.9532
20.0227
20.4274
20.4296
20.024
19.9545
20.0238
20.4302
20.4304
20.0223
19.9531
20.0223
20.4305
20.4276
20.0169
19.9477
20.0171
20.4274
20.4195
20.0065
19.937
20.0067
20.4193
20.4043
19.9891
19.9188
19.9889
20.4044
20.3819
19.9622
19.8907
19.962
20.3821
20.3479
19.9231
19.85
19.923
20.3481
20.2976
19.8686
19.7933
19.8685
20.2978
20.2271
19.7952
19.717
19.7951
20.2273
20.1321
19.6996
19.6177
19.6997
20.1323
20.0083
19.5787
19.492
19.5788
20.0084
19.8531
19.4313
19.3376
19.4314
19.8533
19.6723
19.2599
19.1565
19.26
19.6724
19.4889
19.0667
18.9552
19.0668
19.489
20.4537
19.8712
19.87
19.8712
20.4537
20.6234
19.7842
19.7395
19.7842
20.6234
20.5036
19.8731
19.8096
19.8731
20.5036
20.4338
19.8988
19.8505
19.8988
20.4338
20.4028
19.9069
19.8758
19.9069
20.4028
20.3849
19.9098
19.8916
19.9098
20.385
20.3736
19.911
19.9011
19.9106
20.3741
20.3672
19.9113
19.9073
19.9113
20.3671
20.3638
19.9117
19.9117
19.9117
20.3637
20.3624
19.9124
19.9148
19.9119
20.3633
20.3621
19.9139
19.9177
19.9129
20.3639
20.3628
19.916
19.9207
19.9143
20.3658
20.3667
19.9174
19.9237
19.9166
20.3685
20.3716
19.9194
19.9275
19.9205
20.3705
20.3749
19.9239
19.9324
19.9251
20.3736
20.3793
19.9287
19.9373
19.9288
20.3796
20.3862
19.9328
19.9422
19.9327
20.387
20.3931
19.9383
19.9481
19.9381
20.3941
20.4003
19.9447
19.9549
19.9444
20.4012
20.4084
19.9516
19.9625
19.9515
20.4086
20.4165
19.9594
19.9709
19.9599
20.4159
20.4249
19.968
19.9798
19.9685
20.424
20.4348
19.976
19.9885
19.9768
20.4337
20.4454
19.9837
19.9969
19.984
20.4452
20.4549
19.9921
20.0051
19.9909
20.4569
20.4647
19.9993
20.0126
19.9981
20.4667
20.4751
20.004
20.0182
20.0038
20.4755
20.4836
20.0061
20.021
20.0071
20.4823
20.4877
20.005
20.0195
20.006
20.4865
20.4868
19.9976
20.0107
19.9969
20.4876
20.4787
19.9788
19.9911
19.9782
20.4795
20.4584
19.9451
19.9559
19.945
20.4585
20.418
19.891
19.8992
19.8904
20.4187
20.3491
19.8074
19.8125
19.807
20.3497
20.2372
19.684
19.6847
19.6839
20.2375
20.0677
19.5088
19.5022
19.5088
20.0679
19.823
19.2686
19.2514
19.2686
19.8232
19.4866
18.9562
18.9241
18.9563
19.4867
19.0388
18.5487
18.5028
18.5488
19.0389
20.329
19.9326
20.0021
19.9326
20.329
20.3895
19.8941
19.9571
19.8941
20.3895
20.2632
19.9764
20.0273
19.9764
20.2632
20.1849
20.0055
20.0734
20.0055
20.1849
20.1442
20.0182
20.1055
20.0182
20.1441
20.1193
20.0252
20.1271
20.0251
20.1191
20.1033
20.0293
20.1404
20.0293
20.1031
20.0933
20.0318
20.149
20.0318
20.0931
20.0871
20.0336
20.1549
20.0337
20.0871
20.0837
20.0354
20.1593
20.0355
20.0837
20.0821
20.0371
20.1625
20.0369
20.0817
20.0819
20.0391
20.1656
20.0388
20.0811
20.0825
20.0419
20.1691
20.0419
20.0824
20.0841
20.0453
20.1728
20.0453
20.0846
20.087
20.0492
20.1767
20.0493
20.0876
20.0909
20.054
20.1819
20.0541
20.0912
20.0957
20.0599
20.188
20.06
20.0957
20.101
20.0664
20.1947
20.0666
20.1014
20.1079
20.074
20.2024
20.074
20.1078
20.1158
20.0827
20.2112
20.0827
20.1158
20.1247
20.0923
20.2208
20.0923
20.1249
20.1346
20.1027
20.2313
20.1028
20.1348
20.1458
20.1147
20.2432
20.1148
20.1462
20.1585
20.1279
20.2562
20.1278
20.1585
20.1721
20.1416
20.2699
20.1418
20.1719
20.1868
20.1563
20.2841
20.1564
20.1867
20.2024
20.1717
20.2991
20.1715
20.2022
20.2185
20.1872
20.3139
20.187
20.2186
20.2346
20.2019
20.3276
20.2018
20.2349
20.2497
20.2142
20.3404
20.2145
20.25
20.2618
20.223
20.3487
20.2231
20.2617
20.2678
20.2241
20.3481
20.224
20.2679
20.2652
20.2114
20.3326
20.2113
20.2648
20.2436
20.1769
20.2936
20.1769
20.2433
20.1784
20.1072
20.217
20.1071
20.1784
20.0718
19.985
20.0838
19.9849
20.0718
19.9079
19.8012
19.8813
19.8012
19.9079
19.5839
19.4752
19.5342
19.4752
19.5839
18.5823
18.4488
18.4995
18.4488
18.5824
19.928
20.1721
20.1269
20.1721
19.928
19.9083
20.2116
20.1652
20.2116
19.9083
19.8621
20.2733
20.2274
20.2733
19.8621
19.7978
20.3099
20.2792
20.3099
19.7978
19.754
20.3295
20.3169
20.3294
19.7539
19.7273
20.3406
20.3427
20.3404
19.7268
19.7112
20.3464
20.3593
20.3467
19.7087
19.7009
20.3493
20.3695
20.3495
19.6987
19.6945
20.351
20.3762
20.3514
19.6908
19.6895
20.3525
20.3807
20.3533
19.684
19.6887
20.3524
20.3826
20.3525
19.685
19.689
20.3524
20.3837
20.3521
19.6876
19.6883
20.3537
20.3858
20.3539
19.6875
19.6888
20.3552
20.3873
20.3546
19.6918
19.6939
20.356
20.3885
20.3556
19.6965
19.6997
20.3581
20.3909
20.3583
19.6996
19.7047
20.3622
20.3945
20.3623
19.7036
19.714
20.3656
20.3982
20.3664
19.7107
19.7218
20.371
20.403
20.3709
19.7213
19.7298
20.3782
20.4094
20.3782
19.7296
19.7412
20.3858
20.4165
20.3857
19.7422
19.7558
20.3941
20.4247
20.394
19.758
19.7691
20.4059
20.4358
20.4058
19.7704
19.7825
20.4205
20.4494
20.4199
19.7845
19.8031
20.4349
20.4642
20.4357
19.8011
19.8247
20.452
20.4809
20.4527
19.8226
19.8466
20.4727
20.5005
20.4721
19.8479
19.8714
20.4961
20.5228
20.4948
19.8745
19.901
20.5213
20.5473
20.5207
19.9026
19.9343
20.5492
20.5742
20.5508
19.9316
19.9673
20.5799
20.6023
20.5806
19.9661
20.0023
20.6103
20.6297
20.6097
20.0025
20.0345
20.6355
20.6519
20.6354
20.0339
20.0562
20.6489
20.6607
20.649
20.0556
20.0553
20.6364
20.6397
20.6363
20.0552
19.9991
20.5649
20.5546
20.5649
19.9992
19.8207
20.3574
20.3248
20.3573
19.8207
19.4262
19.8844
19.8099
19.8844
19.4262
18.3215
18.6046
18.5187
18.6047
18.3216
19.8658
20.2687
20.262
20.2688
19.8659
20.214
20.1105
20.2123
20.1106
20.214
20.5119
19.9691
20.0057