/*--------------------------------*- C++ -*----------------------------------*\
  =========                 |
  \\      /  F ield         | OpenFOAM: The Open Source CFD Toolbox
   \\    /   O peration     | Website:  https://openfoam.org
    \\  /    A nd           | Version:  9
     \\/     M anipulation  |
\*---------------------------------------------------------------------------*/
FoamFile
{
    format      ascii;
    class       surfaceScalarField;
    location    "3";
    object      phi;
}
// * * * * * * * * * * * * * * * * * * * * * * * * * * * * * * * * * * * * * //

dimensions      [0 3 -1 0 0 0 0];

internalField   nonuniform List<scalar> 
12376
(
-9.03855e-05
0.00130076
0.000361234
1.66029e-05
0.000589425
-0.000260803
-1.66014e-05
0.000575825
-2.58503e-05
9.03858e-05
0.000589434
-0.000260804
0.00130078
0.000361231
-0.000106559
0.00114304
0.000264278
1.61588e-05
0.000684285
-0.000217578
-1.61527e-05
0.000617138
-9.00163e-06
0.000106561
0.0006843
-0.00021758
0.00114307
0.000264274
-0.000143566
0.00103382
0.000252791
1.57607e-05
0.000749105
-0.000224147
-1.57494e-05
0.000671428
-2.27798e-05
0.000143573
0.000749131
-0.000224154
0.00103386
0.000252779
-0.000174168
0.000962042
0.000245942
1.02076e-05
0.000787003
-0.000222273
-1.0194e-05
0.000722472
-3.06429e-05
0.000174186
0.000787037
-0.000222286
0.00096213
0.000245917
-0.00019113
0.000918319
0.000234853
4.02348e-06
0.000809432
-0.000217583
-4.02407e-06
0.00076243
-3.19099e-05
0.000191183
0.000809429
-0.0002176
0.000918509
0.000234804
-0.00019898
0.000892542
0.000224757
-8.07765e-07
0.000824187
-0.000212926
7.22483e-07
0.000792083
-3.11829e-05
0.00019889
0.00082417
-0.000212909
0.000892629
0.000224771
-0.000201616
0.000878288
0.000215871
-4.15311e-06
0.000835066
-0.000208343
4.03109e-06
0.000813844
-2.99459e-05
0.000201243
0.000835106
-0.000208148
0.000878056
0.000215816
-0.000201023
0.000871078
0.000208234
-6.14301e-06
0.000844225
-0.000204039
6.20331e-06
0.000830399
-2.89012e-05
0.000200918
0.000844139
-0.000203748
0.000870955
0.000208019
-0.000198852
0.000868154
0.000201776
-7.17229e-06
0.000852864
-0.00020032
7.56316e-06
0.000843924
-2.82608e-05
0.000198446
0.00085266
-0.000199404
0.000868487
0.000200913
-0.000196227
0.000869486
0.000194895
-8.10697e-06
0.000860984
-0.00019624
8.33119e-06
0.000855445
-2.79586e-05
0.000195161
0.000860935
-0.000195105
0.000869669
0.000193979
-0.000192363
0.000873079
0.00018877
-8.53741e-06
0.000869514
-0.000192355
8.52193e-06
0.000866248
-2.78631e-05
0.000191128
0.000869796
-0.000191468
0.000872701
0.000188097
-0.000188453
0.00087836
0.000183172
-8.59266e-06
0.000878536
-0.000188883
8.71713e-06
0.000876876
-2.79374e-05
0.000188076
0.000878847
-0.00018841
0.000878016
0.000182759
-0.000184001
0.00088509
0.000177271
-8.63385e-06
0.000888249
-0.000185081
8.63071e-06
0.000887698
-2.8087e-05
0.000184643
0.00088832
-0.000185485
0.000884951
0.000177708
-0.00017913
0.000892805
0.000171414
-8.69477e-06
0.000898829
-0.000181015
8.45236e-06
0.000898749
-2.81989e-05
0.000180478
0.000898367
-0.000182073
0.000893005
0.000172425
-0.000175662
0.000902131
0.000166336
-8.61072e-06
0.000909502
-0.000177724
8.25655e-06
0.00091021
-2.83277e-05
0.000176014
0.000908929
-0.00017832
0.000902141
0.000166878
-0.000171411
0.000911819
0.000161723
-8.21814e-06
0.000920654
-0.000174345
8.10065e-06
0.000922187
-2.82965e-05
0.000170698
0.000920349
-0.000174017
0.000911556
0.000161282
-0.00016712
0.000922191
0.000156748
-7.89626e-06
0.000931743
-0.000170312
8.12823e-06
0.00093404
-2.78773e-05
0.000166178
0.000931696
-0.000169398
0.000922153
0.000155581
-0.000162072
0.000932185
0.000152077
-7.50868e-06
0.000943126
-0.000165947
7.62986e-06
0.000946059
-2.71577e-05
0.000160629
0.000943759
-0.000165062
0.000931456
0.000151326
-0.000156331
0.000940722
0.000147795
-7.17152e-06
0.000954957
-0.000160991
7.28987e-06
0.00095777
-2.61726e-05
0.000156854
0.000955274
-0.000161079
0.000940574
0.000147737
-0.000153459
0.000949974
0.000144206
-6.98217e-06
0.000965175
-0.000156695
7.2112e-06
0.000968452
-2.48757e-05
0.000154279
0.000965107
-0.000156901
0.000950575
0.000144277
-0.0001496
0.00095818
0.000141393
-6.65914e-06
0.000974159
-0.000151924
6.73915e-06
0.00097814
-2.30859e-05
0.000149229
0.000974493
-0.000151876
0.000958136
0.000141668
-0.000144454
0.000964219
0.000138415
-6.52232e-06
0.000981923
-0.000145696
6.30821e-06
0.000986152
-2.08426e-05
0.000145161
0.000982022
-0.000146382
0.000964076
0.00013922
-0.000139869
0.000967931
0.000136157
-6.25897e-06
0.000987553
-0.00013924
5.94097e-06
0.000992038
-1.80867e-05
0.000141022
0.000987281
-0.00014034
0.000967857
0.000137241
-0.000135467
0.000967614
0.000135784
-5.44793e-06
0.000990813
-0.00013328
5.86852e-06
0.000995509
-1.4788e-05
0.000136093
0.000990233
-0.000133177
0.000968472
0.000135478
-0.00013222
0.00096459
0.000135245
-5.21619e-06
0.000990187
-0.000126378
5.63516e-06
0.000995662
-1.10039e-05
0.00013126
0.000990186
-0.000125578
0.000965259
0.000134474
-0.000128595
0.000957928
0.000135256
-5.1881e-06
0.000985481
-0.000118701
5.07914e-06
0.000992252
-6.85717e-06
0.000127833
0.000985897
-0.000118464
0.000958099
0.000134992
-0.000124147
0.000945923
0.000136152
-4.84902e-06
0.000976645
-0.000110462
4.52034e-06
0.000984825
-1.94244e-06
0.00012454
0.000976818
-0.00011094
0.000946272
0.000136368
-0.000120046
0.00092833
0.000137639
-4.27215e-06
0.000962808
-0.000101937
4.15771e-06
0.00097261
3.78505e-06
0.000120074
0.00096295
-0.000102049
0.000928701
0.000137644
-0.000116183
0.000904753
0.000139761
-3.63983e-06
0.000943396
-9.31309e-05
3.53826e-06
0.000954293
1.11389e-05
0.000116439
0.000943371
-9.3321e-05
0.000905229
0.000139911
-0.000112412
0.000874557
0.000142607
-3.04094e-06
0.000918063
-8.4038e-05
2.67185e-06
0.000930321
1.82592e-05
0.000112311
0.00091826
-8.45285e-05
0.000874178
0.000143362
-0.000108639
0.000837211
0.000145985
-2.33232e-06
0.000886368
-7.46106e-05
2.28617e-06
0.000900142
2.55602e-05
0.000108721
0.000886559
-7.47338e-05
0.000836711
0.000146188
-0.000104507
0.000792191
0.000149527
-1.68632e-06
0.000848275
-6.4727e-05
1.7093e-06
0.000863728
3.30182e-05
0.000104928
0.000848382
-6.50415e-05
0.000791668
0.000149971
-0.000100698
0.000739177
0.000153713
-1.03608e-06
0.000803621
-5.50081e-05
9.62735e-07
0.000821195
4.05349e-05
0.000101154
0.000803644
-5.54531e-05
0.00073867
0.000154153
-9.69019e-05
0.000678211
0.000157868
-3.64489e-07
0.000752283
-4.51995e-05
3.57822e-07
0.000772354
4.81187e-05
9.74128e-05
0.000752114
-4.55247e-05
0.000678025
0.000158058
-9.29148e-05
0.000609199
0.000161927
3.64526e-07
0.000694655
-3.56505e-05
-2.84776e-07
0.000717346
5.56577e-05
9.307e-05
0.000694493
-3.5734e-05
0.00060918
0.000161915
-8.871e-05
0.000532548
0.000165361
1.01014e-06
0.000631287
-2.63518e-05
-9.43001e-07
0.000656273
6.30264e-05
8.87284e-05
0.000631203
-2.63816e-05
0.00053256
0.000165348
-8.43289e-05
0.000448848
0.000168029
1.57814e-06
0.000563107
-1.77266e-05
-1.53999e-06
0.000589277
7.01143e-05
8.43328e-05
0.000563068
-1.77371e-05
0.000448869
0.000168024
-7.98804e-05
0.000359664
0.000169065
2.00303e-06
0.000491056
-9.83245e-06
-1.98291e-06
0.000516166
7.70971e-05
7.98798e-05
0.000491041
-9.83552e-06
0.000359683
0.000169066
-7.51901e-05
0.000166169
0.000268685
2.12888e-06
-1.16382e-06
0.000414901
-2.11974e-06
8.44167e-05
0.000435998
7.51884e-05
-1.16393e-06
0.000414897
0.000166171
0.0002687
0.000106996
0.00114863
0.000302249
-1.75601e-05
0.000722947
-0.000189165
1.75613e-05
0.000755969
-7.71966e-05
-0.000106994
0.00072295
-0.000189167
0.00114864
0.000302246
0.000119101
0.00102959
0.000264217
-1.42508e-05
0.000814591
-0.00017587
1.42548e-05
0.000784851
-6.63886e-05
-0.000119099
0.000814596
-0.000175873
0.0010296
0.000264212
6.6547e-05
0.000966382
0.000249456
-1.12825e-05
0.000847466
-0.000179193
1.12896e-05
0.000814333
-7.48344e-05
-6.65421e-05
0.000847475
-0.000179201
0.000966397
0.000249443
4.01089e-05
0.000934949
0.000237267
-1.44595e-05
0.000860657
-0.000180896
1.44684e-05
0.000836243
-8.14814e-05
-4.01008e-05
0.000860666
-0.000180908
0.000934967
0.000237246
2.72736e-05
0.000916587
0.000225941
-1.78994e-05
0.000868417
-0.000180169
1.79049e-05
0.000852046
-8.35171e-05
-2.72609e-05
0.000868415
-0.000180182
0.000916591
0.000225918
1.97852e-05
0.000906089
0.00021547
-2.04152e-05
0.000874211
-0.00017852
2.04086e-05
0.000863755
-8.37154e-05
-1.97797e-05
0.000874211
-0.000178517
0.000906074
0.000215509
1.5184e-05
0.000900917
0.000205858
-2.22119e-05
0.000879482
-0.000176218
2.21885e-05
0.000872778
-8.33698e-05
-1.52049e-05
0.000879494
-0.000176038
0.000900917
0.000205768
1.23495e-05
0.000899426
0.000197376
-2.30739e-05
0.000884816
-0.00017395
2.3067e-05
0.000880553
-8.28164e-05
-1.23829e-05
0.000884812
-0.000173616
0.000899406
0.000197148
1.05624e-05
0.000900543
0.000190096
-2.33783e-05
0.000890559
-0.000172122
2.33901e-05
0.000887858
-8.23346e-05
-1.06348e-05
0.000890524
-0.00017109
0.000900514
0.00018917
9.39665e-06
0.000903499
0.000182543
-2.33682e-05
0.000896722
-0.000169639
2.33512e-05
0.000895075
-8.18956e-05
-9.49805e-06
0.000896711
-0.000168443
0.000903512
0.000181483
8.61154e-06
0.000908004
0.000175652
-2.31219e-05
0.000903478
-0.000167378
2.30921e-05
0.000902543
-8.15449e-05
-8.69562e-06
0.000903523
-0.000166492
0.000908047
0.000174866
8.06038e-06
0.00091369
0.000169426
-2.27298e-05
0.000910858
-0.000165473
2.2748e-05
0.000910384
-8.12564e-05
-8.08442e-06
0.000910892
-0.000164946
0.000913777
0.000168945
7.67447e-06
0.000920319
0.000162968
-2.2269e-05
0.00091882
-0.000163099
2.2298e-05
0.000918639
-8.09089e-05
-7.59394e-06
0.000918797
-0.000163499
0.000920349
0.000163543
7.40294e-06
0.000927843
0.000156487
-2.17911e-05
0.00092726
-0.000160261
2.17986e-05
0.000927261
-8.04104e-05
-7.25184e-06
0.000927168
-0.000161393
0.000927687
0.000157835
7.04821e-06
0.000935716
0.000151414
-2.12787e-05
0.000935969
-0.000158107
2.12622e-05
0.000936151
-7.97595e-05
-6.97193e-06
0.000935869
-0.000158788
0.000935515
0.000152078
6.73822e-06
0.000943774
0.000146927
-2.07316e-05
0.000944854
-0.00015576
2.07166e-05
0.000945189
-7.87821e-05
-6.79618e-06
0.000944796
-0.000155431
0.000943706
0.000146295
6.49653e-06
0.00095188
0.000142145
-2.01884e-05
0.000953641
-0.000152414
2.01794e-05
0.000954127
-7.71833e-05
-6.61957e-06
0.000953629
-0.000151432
0.000951864
0.000140804
6.30128e-06
0.000959702
0.000137954
-1.96343e-05
0.00096219
-0.000148561
1.95966e-05
0.00096281
-7.50714e-05
-6.44779e-06
0.000962283
-0.000147671
0.000959842
0.0001369
6.17023e-06
0.000967125
0.000134201
-1.9065e-05
0.000970226
-0.000143791
1.90619e-05
0.000970889
-7.23787e-05
-6.2032e-06
0.0009703
-0.000143832
0.000967178
0.000134197
5.90243e-06
0.000973301
0.000132128
-1.85291e-05
0.000977183
-0.000139221
1.85473e-05
0.000977922
-6.89854e-05
-5.90664e-06
0.000977198
-0.000139344
0.000973268
0.00013228
5.67616e-06
0.000978
0.000131018
-1.79967e-05
0.000982763
-0.000133831
1.79879e-05
0.000983612
-6.47598e-05
-5.72747e-06
0.000982796
-0.000133758
0.000978142
0.000131067
5.55908e-06
0.000980976
0.00012988
-1.74552e-05
0.000986575
-0.000126495
1.7437e-05
0.000987513
-5.96363e-05
-5.52414e-06
0.000986591
-0.000127216
0.000981069
0.00013077
5.39955e-06
0.000981604
0.00013013
-1.69076e-05
0.000988147
-0.000118505
1.68989e-05
0.000989197
-5.35768e-05
-5.3158e-06
0.000988144
-0.000119679
0.000981526
0.000131467
5.1896e-06
0.000979381
0.000132817
-1.63284e-05
0.000987099
-0.000110714
1.63762e-05
0.000988239
-4.65347e-05
-5.17763e-06
0.000987035
-0.000110514
0.000979236
0.00013259
4.96499e-06
0.000973691
0.00013597
-1.57862e-05
0.000982792
-0.00010132
1.58306e-05
0.000984076
-3.84576e-05
-5.04195e-06
0.000982755
-0.000100426
0.000973749
0.000134919
4.79308e-06
0.000964208
0.000139946
-1.52557e-05
0.000974786
-9.06463e-05
1.52634e-05
0.000976117
-2.94174e-05
-4.81696e-06
0.000974819
-9.04474e-05
0.000964347
0.000139577
4.66401e-06
0.000950603
0.000145093
-1.4781e-05
0.000962822
-7.90525e-05
1.47801e-05
0.000964047
-1.94344e-05
-4.597e-06
0.000962867
-7.96116e-05
0.000950606
0.000145512
4.52662e-06
0.000932373
0.000151343
-1.44469e-05
0.00094657
-6.67115e-05
1.44579e-05
0.000947671
-8.74373e-06
-4.4609e-06
0.000946579
-6.68414e-05
0.000932424
0.000151366
4.38372e-06
0.000909221
0.000158529
-1.42663e-05
0.000925786
-5.36968e-05
1.42673e-05
0.000927898
2.37889e-06
-4.30938e-06
0.000925783
-5.39487e-05
0.00090919
0.000158836
4.27406e-06
0.000880734
0.00016682
-1.37415e-05
0.000900162
-4.03984e-05
1.37316e-05
0.000902755
1.59294e-05
-4.21002e-06
0.000900203
-4.10067e-05
0.000880782
0.000167559
4.2211e-06
0.000846838
0.00017566
-1.32122e-05
0.000869554
-2.65693e-05
1.32289e-05
0.000872768
2.91057e-05
-4.16143e-06
0.000869568
-2.67087e-05
0.000846886
0.000175923
4.2355e-06
0.000807513
0.000184617
-1.26854e-05
0.000833937
-1.21892e-05
1.26968e-05
0.000837922
4.24824e-05
-4.17406e-06
0.000833963
-1.25656e-05
0.000807502
0.00018518
4.29718e-06
0.000762666
0.000194262
-1.21195e-05
0.00079349
1.85547e-06
1.21339e-05
0.000798343
5.58602e-05
-4.23347e-06
0.000793514
1.36328e-06
0.000762625
0.000194797
4.43421e-06
0.000712549
0.00020355
-1.15301e-05
0.000748434
1.58212e-05
1.15552e-05
0.00075426
6.91171e-05
-4.38563e-06
0.000748433
1.54975e-05
0.00071248
0.000203816
4.65234e-06
0.000657536
0.000212289
-1.09331e-05
0.000699151
2.92179e-05
1.09598e-05
0.000706031
8.19932e-05
-4.63125e-06
0.000699133
2.91568e-05
0.000657498
0.000212266
4.94018e-06
0.000598195
0.000219762
-1.03444e-05
0.000646086
4.19975e-05
1.0363e-05
0.000654114
9.42368e-05
-4.93343e-06
0.000646072
4.1976e-05
0.000598185
0.000219728
5.23664e-06
0.000535362
0.000225625
-9.77321e-06
0.00058971
5.36598e-05
9.78383e-06
0.00059903
0.000105641
-5.23486e-06
0.000589704
5.36496e-05
0.000535368
0.000225606
5.55634e-06
0.000469928
0.000228944
-9.25578e-06
0.000530565
6.41244e-05
9.26088e-06
0.000541416
0.000116194
-5.55645e-06
0.000530566
6.41199e-05
0.000469941
0.000228937
6.10779e-06
0.000228225
0.000401764
-8.84222e-06
7.38813e-05
0.00047047
8.84372e-06
0.000125929
0.000482218
-6.10872e-06
7.38799e-05
0.000470475
0.000228225
0.000401779
0.000128938
0.00106835
0.000201038
3.00928e-07
0.000762781
-0.000105256
-2.99682e-07
0.000808534
-7.55234e-05
-0.000128936
0.00076278
-0.000105258
0.00106835
0.000201037
0.000161258
0.000987286
0.000184019
7.99671e-06
0.000840262
-0.00010009
-7.99352e-06
0.000828722
-7.05867e-05
-0.000161256
0.000840262
-0.000100093
0.000987286
0.000184017
0.00011548
0.000948029
0.000173233
1.06996e-05
0.000868743
-0.000102894
-1.06942e-05
0.000851537
-7.62558e-05
-0.000115476
0.000868743
-0.0001029
0.000948028
0.000173225
9.35722e-05
0.000928858
0.000162865
7.73707e-06
0.000879637
-0.000105954
-7.72935e-06
0.000867345
-8.18231e-05
-9.35666e-05
0.000879635
-0.000105963
0.000928854
0.000162854
8.33188e-05
0.00091847
0.00015301
4.78058e-06
0.000885821
-0.000107815
-4.77107e-06
0.000877973
-8.45931e-05
-8.33109e-05
0.000885816
-0.000107824
0.000918459
0.000153002
7.69251e-05
0.000913122
0.000143893
2.68684e-06
0.000890463
-0.000108924
-2.68428e-06
0.000885619
-8.59907e-05
-7.69044e-05
0.000890441
-0.000108922
0.000913155
0.000143908
7.23344e-05
0.000910986
0.000135661
1.36246e-06
0.000894782
-0.000109565
-1.39364e-06
0.000891817
-8.68113e-05
-7.22267e-05
0.000894758
-0.000109522
0.000911052
0.000135645
6.90414e-05
0.000911099
0.000128222
5.10134e-07
0.0008993
-0.000109936
-5.77902e-07
0.000897473
-8.73844e-05
-6.88142e-05
0.000899226
-0.000109848
0.000911237
0.000128148
6.66294e-05
0.000913089
0.000121477
-8.20869e-08
0.000904117
-0.000110228
-1.12599e-07
0.000903061
-8.78926e-05
-6.60433e-05
0.000904096
-0.000110031
0.000913108
0.000121256
6.4305e-05
0.000916283
0.000115044
-3.95343e-07
0.000909495
-0.000110316
1.65932e-07
0.000908926
-8.83222e-05
-6.36107e-05
0.000909532
-0.000110102
0.000916186
0.000114794
6.23746e-05
0.000920542
0.000109018
-5.73654e-07
0.000915403
-0.000110338
4.00846e-07
0.000915144
-8.87367e-05
-6.1814e-05
0.000915451
-0.000110196
0.000920395
0.000108843
6.08089e-05
0.000925771
0.000103388
-6.89003e-07
0.000921734
-0.000110306
6.09247e-07
0.0009217
-8.91113e-05
-6.05033e-05
0.000921862
-0.000110245
0.000925498
0.000103338
5.91401e-05
0.00093163
9.79687e-05
-7.08654e-07
0.000928486
-0.000110002
7.99208e-07
0.000928567
-8.92831e-05
-5.93179e-05
0.000928586
-0.000110105
0.000931505
9.82179e-05
5.73736e-05
0.000937725
9.30182e-05
-6.84464e-07
0.000935751
-0.000109468
8.96078e-07
0.000935787
-8.92115e-05
-5.791e-05
0.000935678
-0.000109679
0.000938014
9.34161e-05
5.59933e-05
0.000944351
8.87943e-05
-7.72871e-07
0.000943065
-0.000108655
9.06281e-07
0.000943089
-8.87399e-05
-5.63535e-05
0.000942907
-0.000108757
0.000944826
8.89125e-05
5.4697e-05
0.000951345
8.52366e-05
-8.87599e-07
0.000950265
-0.000107375
8.38659e-07
0.000950343
-8.77629e-05
-5.45755e-05
0.000950173
-0.000107283
0.000951616
8.49297e-05
5.32617e-05
0.000958053
8.21758e-05
-9.60373e-07
0.0009574
-0.000105327
7.75253e-07
0.000957497
-8.60727e-05
-5.27674e-05
0.000957417
-0.000105133
0.000957969
8.16831e-05
5.17865e-05
0.000964318
7.99022e-05
-9.87147e-07
0.000964091
-0.000102478
8.06436e-07
0.000964237
-8.36051e-05
-5.13323e-05
0.000964197
-0.000102312
0.000964009
7.95284e-05
5.02349e-05
0.000969647
7.8638e-05
-9.281e-07
0.000970204
-9.87407e-05
9.16008e-07
0.000970278
-8.02638e-05
-5.02453e-05
0.000970215
-9.86882e-05
0.000969438
7.85226e-05
4.91139e-05
0.000974028
7.86328e-05
-9.83572e-07
0.000975126
-9.40456e-05
9.99576e-07
0.000975197
-7.58869e-05
-4.92314e-05
0.000975117
-9.40154e-05
0.000973855
7.86324e-05
4.79976e-05
0.000977132
7.99162e-05
-1.04323e-06
0.000978534
-8.8198e-05
1.03672e-06
0.000978706
-7.03492e-05
-4.80889e-05
0.000978659
-8.81745e-05
0.00097685
7.99831e-05
4.64223e-05
0.000978144
8.2446e-05
-9.63144e-07
0.000980402
-8.09771e-05
1.0918e-06
0.000980544
-6.35289e-05
-4.68472e-05
0.00098046
-8.10777e-05
0.000978076
8.26965e-05
4.49911e-05
0.000976769
8.65138e-05
-9.28994e-07
0.000980299
-7.24822e-05
1.11816e-06
0.000980301
-5.53811e-05
-4.55342e-05
0.000980072
-7.2638e-05
0.000977202
8.68073e-05
4.40481e-05
0.000973239
9.22988e-05
-1.05204e-06
0.000977461
-6.2775e-05
1.01903e-06
0.000977565
-4.58698e-05
-4.39899e-05
0.00097732
-6.27527e-05
0.000973524
9.22781e-05
4.29211e-05
0.000966778
9.951e-05
-1.08397e-06
0.000971785
-5.16399e-05
9.38088e-07
0.000972054
-3.49687e-05
-4.25521e-05
0.000971898
-5.15144e-05
0.000966614
9.92769e-05
4.17398e-05
0.000956893
0.000108091
-1.0195e-06
0.000963005
-3.91068e-05
9.87078e-07
0.000963362
-2.27314e-05
-4.16344e-05
0.000963148
-3.90752e-05
0.000956604
0.000107954
4.06028e-05
0.000943331
0.000118053
-9.13195e-07
0.00095078
-2.53111e-05
1.00868e-06
0.000951142
-9.13637e-06
-4.08027e-05
0.000950734
-2.53862e-05
0.000943239
0.000118073
3.95613e-05
0.000925829
0.000129283
-8.26989e-07
0.000934754
-1.02969e-05
8.82316e-07
0.000935095
5.59384e-06
-3.96659e-05
0.000934782
-1.03412e-05
0.000925618
0.000129321
3.85981e-05
0.000904136
0.000141624
-7.95098e-07
0.000914767
5.68282e-06
8.64119e-07
0.000914885
2.09298e-05
-3.87413e-05
0.000914806
5.63304e-06
0.000903949
0.000141765
3.76558e-05
0.000878357
0.000154943
-9.27711e-07
0.000890992
2.19603e-05
1.05111e-06
0.000891405
3.74305e-05
-3.79449e-05
0.00089092
2.18748e-05
0.000878401
0.000155161
3.67934e-05
0.000848374
0.00016885
-9.91447e-07
0.000863217
3.89912e-05
1.05932e-06
0.000864023
5.44372e-05
-3.69598e-05
0.00086328
3.89505e-05
0.000848328
0.000169037
3.598e-05
0.000814001
0.000183009
-9.74142e-07
0.000831702
5.628e-05
1.05243e-06
0.00083283
7.1649e-05
-3.61729e-05
0.000831736
5.62042e-05
0.0008141
0.000183235
3.53291e-05
0.000775743
0.000197191
-9.40335e-07
0.000796427
7.33994e-05
1.03945e-06
0.000797962
8.8749e-05
-3.55647e-05
0.000796392
7.33112e-05
0.000775964
0.000197368
3.47153e-05
0.000733721
0.000210857
-8.82104e-07
0.000757818
9.00276e-05
9.54792e-07
0.000759823
0.000105419
-3.48863e-05
0.000757762
8.99687e-05
0.00073395
0.000210944
3.41758e-05
0.000688308
0.000223526
-8.1107e-07
0.000716253
0.00010577
8.35807e-07
0.000718873
0.000121296
-3.42333e-05
0.00071624
0.000105748
0.00068844
0.000223543
3.35993e-05
0.000639809
0.000234661
-6.86077e-07
0.000672302
0.000120235
6.94739e-07
0.000675711
0.000136019
-3.36203e-05
0.000672306
0.000120226
0.000639886
0.000234662
3.29913e-05
0.000588776
0.000243666
-5.0744e-07
0.000626448
0.000133012
5.10817e-07
0.000631071
0.000149262
-3.30013e-05
0.000626459
0.000133009
0.000588824
0.000243667
3.25655e-05
0.00053538
0.000249775
-3.21295e-07
0.00057962
0.00014384
3.22154e-07
0.000585819
0.000160804
-3.25706e-05
0.000579632
0.00014384
0.000535413
0.000249778
3.28612e-05
0.000251848
0.000478896
-4.49454e-07
0.000152717
0.000534094
4.49086e-07
0.000170415
0.000540434
-3.2864e-05
0.000152718
0.000534107
0.000251852
0.000478922
0.000103397
0.00104288
0.000132338
1.00467e-05
0.000776833
-6.03934e-05
-1.00455e-05
0.000819781
-5.72559e-05
-0.000103396
0.00077683
-6.03949e-05
0.00104287
0.00013234
0.000132783
0.000972374
0.00012174
1.84866e-05
0.000848401
-5.73613e-05
-1.84844e-05
0.00084112
-5.4955e-05
-0.000132782
0.000848397
-5.73636e-05
0.000972368
0.00012174
9.00706e-05
0.000941678
0.000113858
1.91442e-05
0.000875686
-5.92531e-05
-1.914e-05
0.00086328
-6.01318e-05
-9.0068e-05
0.000875682
-5.92567e-05
0.00094167
0.000113856
7.08235e-05
0.000927919
0.000105801
1.61037e-05
0.000886911
-6.24593e-05
-1.60974e-05
0.000878494
-6.48363e-05
-7.08196e-05
0.000886905
-6.2464e-05
0.000927908
0.000105797
6.22432e-05
0.000920984
9.77011e-05
1.32674e-05
0.000893472
-6.54003e-05
-1.32589e-05
0.000888374
-6.79463e-05
-6.22375e-05
0.000893464
-6.54042e-05
0.000920972
9.77001e-05
5.71093e-05
0.000917773
8.99956e-05
1.13341e-05
0.000898304
-6.79816e-05
-1.13257e-05
0.000895293
-7.025e-05
-5.7098e-05
0.000898295
-6.79804e-05
0.000917777
9.00042e-05
5.36145e-05
0.000916907
8.2912e-05
1.00654e-05
0.000902554
-7.02654e-05
-1.00616e-05
0.000900788
-7.218e-05
-5.35784e-05
0.000902546
-7.02556e-05
0.000916928
8.29158e-05
5.10637e-05
0.000917674
7.63907e-05
9.21188e-06
0.000906772
-7.23027e-05
-9.21317e-06
0.000905739
-7.39102e-05
-5.0991e-05
0.00090676
-7.22841e-05
0.000917709
7.63754e-05
4.90829e-05
0.000919719
7.03495e-05
8.60307e-06
0.0009112
-7.41757e-05
-8.61808e-06
0.000910611
-7.55432e-05
-4.89389e-05
0.000911197
-7.41469e-05
0.00091972
7.03064e-05
4.73593e-05
0.000922737
6.4666e-05
8.14815e-06
0.000915975
-7.58798e-05
-8.16297e-06
0.000915665
-7.70646e-05
-4.71979e-05
0.000915982
-7.58521e-05
0.000922697
6.46186e-05
4.58588e-05
0.000926565
5.93313e-05
7.79136e-06
0.00092113
-7.7425e-05
-7.79365e-06
0.000920993
-7.84798e-05
-4.57374e-05
0.00092114
-7.74101e-05
0.000926498
5.93049e-05
4.4531e-05
0.000931058
5.43643e-05
7.49611e-06
0.000926642
-7.87827e-05
-7.4841e-06
0.000926608
-7.97465e-05
-4.44791e-05
0.000926669
-7.87787e-05
0.000930975
5.43825e-05
4.32364e-05
0.00093602
4.97702e-05
7.23445e-06
0.00093246
-7.98186e-05
-7.20258e-06
0.000932476
-8.07137e-05
-4.32975e-05
0.000932491
-7.98325e-05
0.000936031
4.98644e-05
4.20123e-05
0.000941287
4.57388e-05
6.99201e-06
0.000938523
-8.051e-05
-6.95222e-06
0.000938547
-8.13388e-05
-4.21368e-05
0.000938532
-8.05354e-05
0.000941463
4.58474e-05
4.08835e-05
0.000946831
4.23675e-05
6.73878e-06
0.00094465
-8.06377e-05
-6.72053e-06
0.000944665
-8.1398e-05
-4.09395e-05
0.000944646
-8.06519e-05
0.000947063
4.23729e-05
3.98071e-05
0.000952476
3.97843e-05
6.4932e-06
0.000950691
-8.01024e-05
-6.50732e-06
0.00095069
-8.07876e-05
-3.97376e-05
0.000950689
-8.00962e-05
0.000952603
3.96527e-05
3.87034e-05
0.000957887
3.80613e-05
6.26113e-06
0.000956509
-7.87015e-05
-6.2956e-06
0.000956487
-7.93125e-05
-3.85624e-05
0.000956508
-7.86856e-05
0.000957852
3.78714e-05
3.76011e-05
0.000962806
3.73822e-05
6.04581e-06
0.000961862
-7.62765e-05
-6.0809e-06
0.000961824
-7.68151e-05
-3.74819e-05
0.000961858
-7.62608e-05
0.000962668
3.72304e-05
3.65323e-05
0.000966947
3.79652e-05
5.85077e-06
0.000966512
-7.27092e-05
-5.86776e-06
0.000966452
-7.31733e-05
-3.64959e-05
0.000966492
-7.2694e-05
0.000966808
3.78873e-05
3.5533e-05
0.000970087
3.996e-05
5.65326e-06
0.000970146
-6.77992e-05
-5.66549e-06
0.000970076
-6.81926e-05
-3.55353e-05
0.000970129
-6.77826e-05
0.000969962
3.99428e-05
3.456e-05
0.000971922
4.35212e-05
5.46135e-06
0.000972485
-6.14383e-05
-5.47234e-06
0.000972422
-6.17612e-05
-3.45854e-05
0.000972494
-6.14257e-05
0.000971808
4.35518e-05
3.35533e-05
0.000972065
4.87493e-05
5.28416e-06
0.000973275
-5.34974e-05
-5.27703e-06
0.000973205
-5.3751e-05
-3.36389e-05
0.000973277
-5.34993e-05
0.000972045
4.88209e-05
3.25984e-05
0.000970235
5.57458e-05
5.10524e-06
0.000972197
-4.39107e-05
-5.08994e-06
0.00097211
-4.40906e-05
-3.26938e-05
0.000972163
-4.39199e-05
0.000970344
5.58139e-05
3.17421e-05
0.000966229
6.45625e-05
4.91667e-06
0.000968897
-3.26503e-05
-4.92386e-06
0.000968827
-3.27454e-05
-3.17389e-05
0.000968874
-3.26488e-05
0.000966316
6.45675e-05
3.08951e-05
0.00095969
7.51542e-05
4.74468e-06
0.000963119
-1.97115e-05
-4.76315e-06
0.000963083
-1.97175e-05
-3.08316e-05
0.00096313
-1.97017e-05
0.000959655
7.51064e-05
3.00557e-05
0.000950288
8.74377e-05
4.59205e-06
0.000954618
-5.14149e-06
-4.5966e-06
0.000954597
-5.05665e-06
-3.00279e-05
0.000954627
-5.14115e-06
0.000950185
8.73959e-05
2.92435e-05
0.000937783
0.000101314
4.44276e-06
0.000943172
1.09359e-05
-4.43065e-06
0.000943237
1.10974e-05
-2.92675e-05
0.000943152
1.09266e-05
0.000937684
0.000101307
2.8466e-05
0.000921985
0.000116615
4.32567e-06
0.00092866
2.83548e-05
-4.31392e-06
0.000928872
2.85982e-05
-2.84938e-05
0.000928643
2.83476e-05
0.00092187
0.000116641
2.77627e-05
0.000902741
0.000133105
4.25511e-06
0.000910985
4.6866e-05
-4.24235e-06
0.000911123
4.71768e-05
-2.78058e-05
0.000910977
4.68619e-05
0.000902656
0.000133173
2.71888e-05
0.000879973
0.000150522
4.12095e-06
0.000889848
6.61652e-05
-4.10121e-06
0.00089016
6.66157e-05
-2.72516e-05
0.000889838
6.61643e-05
0.00087995
0.000150616
2.66414e-05
0.00085368
0.000168501
4.01374e-06
0.000865483
8.59831e-05
-3.9981e-06
0.000866026
8.65832e-05
-2.66944e-05
0.0008655
8.59848e-05
0.000853689
0.000168603
2.61365e-05
0.000823909
0.000186644
3.93735e-06
0.00083803
0.000105932
-3.92229e-06
0.000838846
0.000106689
-2.61968e-05
0.00083805
0.000105929
0.000823982
0.000186746
2.57118e-05
0.000790861
0.000204527
3.88648e-06
0.00080767
0.000125585
-3.87079e-06
0.000808828
0.000126524
-2.57702e-05
0.000807682
0.000125579
0.000790974
0.000204605
2.53572e-05
0.000754725
0.000221637
3.86151e-06
0.000774703
0.00014449
-3.84998e-06
0.000776302
0.000145657
-2.53977e-05
0.000774712
0.000144486
0.000754836
0.000221685
2.5075e-05
0.000715727
0.000237449
3.8664e-06
0.000739494
0.000162187
-3.86163e-06
0.000741678
0.000163647
-2.50957e-05
0.000739508
0.000162186
0.00071581
0.000237474
2.48458e-05
0.000674129
0.000251414
3.91385e-06
0.000702453
0.000178207
-3.91266e-06
0.000705463
0.00018006
-2.4857e-05
0.00070247
0.000178209
0.000674187
0.000251428
2.46365e-05
0.00063023
0.000262928
4.02193e-06
0.000663983
0.000192096
-4.02244e-06
0.000668283
0.000194486
-2.4643e-05
0.000664
0.000192099
0.000630273
0.000262938
2.46665e-05
0.000584
0.000271339
4.16875e-06
0.000624821
0.000203501
-4.1699e-06
0.000630805
0.00020662
-2.46705e-05
0.000624836
0.000203504
0.000584033
0.000271347
2.55505e-05
0.000275835
0.000534462
4.05776e-06
0.000212199
0.000586832
-4.05892e-06
0.000216173
0.000593164
-2.55529e-05
0.000212203
0.000586846
0.000275843
0.000534489
8.46682e-05
0.00103488
8.75121e-05
1.17591e-05
0.000784994
-3.72244e-05
-1.17584e-05
0.000821577
-4.02654e-05
-8.46678e-05
0.00078499
-3.72248e-05
0.00103488
8.75157e-05
0.000109085
0.000967574
7.9963e-05
1.91825e-05
0.000853049
-3.55135e-05
-1.91808e-05
0.000844669
-3.96838e-05
-0.000109084
0.000853044
-3.55144e-05
0.000967567
7.99652e-05
6.79354e-05
0.000939761
7.37357e-05
1.99221e-05
0.000879085
-3.72763e-05
-1.99191e-05
0.000867793
-4.34146e-05
-6.79338e-05
0.000879079
-3.72776e-05
0.000939752
7.37371e-05
5.00638e-05
0.000928199
6.72992e-05
1.65207e-05
0.00089048
-4.03117e-05
-1.6516e-05
0.000883291
-4.72975e-05
-5.00614e-05
0.000890474
-4.0313e-05
0.000928186
6.73007e-05
4.24423e-05
0.000922828
6.06288e-05
1.36546e-05
0.000897385
-4.35175e-05
-1.36479e-05
0.000893246
-5.05985e-05
-4.24385e-05
0.000897378
-4.35177e-05
0.000922815
6.06326e-05
3.81274e-05
0.000920614
5.40827e-05
1.17753e-05
0.00090244
-4.66843e-05
-1.17667e-05
0.000900105
-5.3567e-05
-3.81213e-05
0.000902434
-4.66817e-05
0.000920607
5.40915e-05
3.53533e-05
0.00092029
4.78829e-05
1.05609e-05
0.000906714
-4.97472e-05
-1.05507e-05
0.000905398
-5.63615e-05
-3.53408e-05
0.00090671
-4.9742e-05
0.00092029
4.78921e-05
3.34116e-05
0.000921233
4.20362e-05
9.7509e-06
0.00091075
-5.26777e-05
-9.73855e-06
0.000910006
-5.90285e-05
-3.33892e-05
0.000910748
-5.26709e-05
0.000921236
4.20402e-05
3.1939e-05
0.000923126
3.6517e-05
9.17728e-06
0.000914822
-5.5486e-05
-9.16218e-06
0.000914405
-6.16033e-05
-3.19047e-05
0.000914821
-5.54781e-05
0.000923123
3.65143e-05
3.07228e-05
0.000925776
3.12936e-05
8.7381e-06
0.000919068
-5.81413e-05
-8.72008e-06
0.000918851
-6.40515e-05
-3.06863e-05
0.000919069
-5.81338e-05
0.000925765
3.12908e-05
2.9682e-05
0.000929044
2.63818e-05
8.38257e-06
0.000923551
-6.06085e-05
-8.36239e-06
0.000923456
-6.63397e-05
-2.96547e-05
0.000923554
-6.06025e-05
0.000929028
2.63865e-05
2.87655e-05
0.000932804
2.18384e-05
8.08132e-06
0.000928282
-6.28291e-05
-8.06146e-06
0.000928255
-6.84034e-05
-2.87542e-05
0.000928292
-6.28233e-05
0.000932797
2.18593e-05
2.79037e-05
0.000936935
1.77356e-05
7.80766e-06
0.000933219
-6.46593e-05
-7.78968e-06
0.000933228
-7.00894e-05
-2.79143e-05
0.000933238
-6.46546e-05
0.000936971
1.77764e-05
2.71109e-05
0.000941328
1.42347e-05
7.55787e-06
0.000938295
-6.60328e-05
-7.54505e-06
0.000938324
-7.13314e-05
-2.71302e-05
0.000938321
-6.60325e-05
0.000941419
1.42698e-05
2.63498e-05
0.000945878
1.14681e-05
7.31436e-06
0.000943403
-6.67103e-05
-7.3107e-06
0.000943435
-7.18832e-05
-2.63527e-05
0.000943427
-6.67165e-05
0.00094598
1.14591e-05
2.56295e-05
0.000950431
9.60164e-06
7.08295e-06
0.000948419
-6.65721e-05
-7.08762e-06
0.000948439
-7.16217e-05
-2.56061e-05
0.000948433
-6.65837e-05