/*--------------------------------*- C++ -*----------------------------------*\
  =========                 |
  \\      /  F ield         | OpenFOAM: The Open Source CFD Toolbox
   \\    /   O peration     | Website:  https://openfoam.org
    \\  /    A nd           | Version:  9
     \\/     M anipulation  |
\*---------------------------------------------------------------------------*/
FoamFile
{
    format      ascii;
    class       volVectorField;
    location    "3";
    object      U;
}
// * * * * * * * * * * * * * * * * * * * * * * * * * * * * * * * * * * * * * //

dimensions      [0 1 -1 0 0 0 0];

internalField   nonuniform List<vector> 
4545
(
(0.221193 -0.73468 -2.30787)
(-0.155563 -0.210839 -0.0111543)
(0.0066895 -0.246147 2.38613e-07)
(-0.155563 -0.210842 0.0111546)
(0.221192 -0.734687 2.30787)
(0.147426 -0.582948 -2.20663)
(-0.129489 -0.318525 -0.0140951)
(0.0174189 -0.288348 9.53616e-07)
(-0.12949 -0.31853 0.0140964)
(0.147424 -0.582958 2.20663)
(0.131741 -0.50089 -2.24206)
(-0.132577 -0.343692 -0.0201884)
(0.0084252 -0.306927 1.80752e-06)
(-0.13258 -0.343702 0.0201914)
(0.131736 -0.500905 2.24206)
(0.129005 -0.469735 -2.2301)
(-0.13263 -0.365627 -0.0264278)
(0.00357459 -0.332048 2.20634e-06)
(-0.132635 -0.36564 0.0264329)
(0.128994 -0.469767 2.23009)
(0.124871 -0.445452 -2.22146)
(-0.131398 -0.379718 -0.0307564)
(0.00291293 -0.353651 -9.82274e-08)
(-0.131407 -0.379725 0.030765)
(0.124849 -0.445506 2.22145)
(0.121423 -0.4292 -2.21012)
(-0.130369 -0.388225 -0.0335395)
(0.00336368 -0.36984 -1.44728e-05)
(-0.130364 -0.388228 0.0335678)
(0.121384 -0.429286 2.20254)
(0.118887 -0.419948 -2.20479)
(-0.129595 -0.394142 -0.0352341)
(0.00404897 -0.381802 -2.11227e-05)
(-0.129591 -0.394151 0.0352097)
(0.118861 -0.419889 2.19717)
(0.116749 -0.415016 -2.16816)
(-0.128916 -0.398861 -0.0364431)
(0.00455671 -0.39073 1.06432e-05)
(-0.128932 -0.398844 0.036224)
(0.116879 -0.414974 2.19443)
(0.114954 -0.41278 -2.12735)
(-0.128271 -0.403029 -0.0372668)
(0.00481014 -0.397759 7.03615e-05)
(-0.128342 -0.402946 0.0368177)
(0.115148 -0.412829 2.18167)
(0.113521 -0.412475 -2.15963)
(-0.127759 -0.406961 -0.0374011)
(0.00484186 -0.40363 4.11587e-05)
(-0.127821 -0.406906 0.0370076)
(0.113636 -0.412583 2.18917)
(0.112066 -0.413659 -2.15562)
(-0.12719 -0.410937 -0.0375173)
(0.00473342 -0.408878 -2.91516e-06)
(-0.127236 -0.410974 0.0372831)
(0.112042 -0.413649 2.15599)
(0.110597 -0.415766 -2.1388)
(-0.126599 -0.415093 -0.0376438)
(0.00451466 -0.413936 2.37828e-05)
(-0.126657 -0.415238 0.0374856)
(0.110673 -0.415571 2.15208)
(0.109128 -0.418747 -2.1353)
(-0.126035 -0.419474 -0.0375522)
(0.00424436 -0.419017 -5.85242e-07)
(-0.126014 -0.419628 0.0375729)
(0.109196 -0.418582 2.14759)
(0.107794 -0.422178 -2.14518)
(-0.125497 -0.424323 -0.0372288)
(0.003955 -0.424208 -4.81378e-05)
(-0.125393 -0.424248 0.0374563)
(0.107772 -0.422122 2.14389)
(0.106498 -0.426068 -2.18277)
(-0.124806 -0.429456 -0.0369317)
(0.00367083 -0.429559 -7.18063e-05)
(-0.124732 -0.429158 0.037224)
(0.106294 -0.426261 2.14685)
(0.105006 -0.430779 -2.17967)
(-0.123986 -0.434617 -0.0367217)
(0.00343652 -0.435136 -2.433e-05)
(-0.124024 -0.434352 0.0368466)
(0.104852 -0.430716 2.14346)
(0.103602 -0.435506 -2.17665)
(-0.12315 -0.439893 -0.0364933)
(0.00329639 -0.440819 4.88914e-05)
(-0.12326 -0.439797 0.0363452)
(0.103534 -0.435467 2.17696)
(0.102068 -0.440497 -2.13587)
(-0.122136 -0.44524 -0.0363769)
(0.00332045 -0.446517 2.60341e-05)
(-0.122201 -0.445439 0.0361661)
(0.102069 -0.440275 2.1272)
(0.100745 -0.444883 -2.08591)
(-0.120981 -0.45081 -0.0361521)
(0.00347741 -0.452188 2.59733e-05)
(-0.120984 -0.451072 0.0359903)
(0.10089 -0.44453 2.12324)
(0.0996983 -0.448948 -2.11856)
(-0.119599 -0.456156 -0.0359013)
(0.00380187 -0.457549 5.12804e-05)
(-0.119607 -0.456163 0.0357433)
(0.0998581 -0.44924 2.1675)
(0.0987136 -0.453434 -2.11364)
(-0.117958 -0.460712 -0.0356807)
(0.00438122 -0.46243 1.82585e-05)
(-0.11796 -0.460765 0.0356139)
(0.0988383 -0.453532 2.11376)
(0.0980638 -0.456773 -2.10987)
(-0.116131 -0.464668 -0.0351728)
(0.00522037 -0.466687 -4.98584e-05)
(-0.116059 -0.464876 0.0352879)
(0.0981179 -0.456609 2.1097)
(0.0975628 -0.459159 -2.10552)
(-0.113968 -0.468013 -0.0347388)
(0.00640263 -0.470055 -7.55194e-05)
(-0.11385 -0.46795 0.034895)
(0.0975698 -0.459146 2.11069)
(0.0972268 -0.45995 -2.05023)
(-0.111304 -0.470217 -0.0345852)
(0.00798191 -0.472344 0.000101939)
(-0.111376 -0.469885 0.0343921)
(0.0973745 -0.460277 2.107)
(0.0974732 -0.459321 -2.09739)
(-0.108403 -0.470838 -0.0340179)
(0.00994289 -0.473269 0.000103552)
(-0.108547 -0.470701 0.0338812)
(0.0974947 -0.459599 2.09781)
(0.0981441 -0.457154 -2.1494)
(-0.105155 -0.469666 -0.0333651)
(0.0123103 -0.472566 -2.74908e-05)
(-0.10519 -0.469874 0.0335672)
(0.0978879 -0.45734 2.09391)
(0.0990475 -0.452665 -2.14692)
(-0.101476 -0.466525 -0.0328192)
(0.0149042 -0.470064 -8.45422e-05)
(-0.101426 -0.466633 0.0332522)
(0.0987483 -0.452755 2.09118)
(0.100223 -0.445832 -2.14456)
(-0.0974909 -0.461155 -0.0322663)
(0.0173507 -0.465437 -3.00282e-05)
(-0.0974912 -0.461204 0.0326614)
(0.0999767 -0.446042 2.0879)
(0.101804 -0.435909 -2.14243)
(-0.0932162 -0.453415 -0.0317286)
(0.0194365 -0.458269 -2.71775e-05)
(-0.0931397 -0.453523 0.0321722)
(0.101549 -0.436315 2.08715)
(0.103686 -0.423762 -2.14059)
(-0.0883715 -0.442866 -0.0311887)
(0.0224512 -0.448304 -0.000100736)
(-0.0882346 -0.442809 0.0318456)
(0.103437 -0.423158 2.03292)
(0.106145 -0.406947 -2.13909)
(-0.0831245 -0.429255 -0.0305846)
(0.0260886 -0.435501 -1.28441e-05)
(-0.0830777 -0.429406 0.0309875)
(0.105849 -0.407599 2.08371)
(0.108676 -0.388119 -2.11773)
(-0.0775175 -0.412813 -0.0300021)
(0.0302223 -0.41971 6.53352e-06)
(-0.0774045 -0.412893 0.0302498)
(0.10871 -0.387271 2.10008)
(0.111735 -0.364753 -2.11677)
(-0.0713953 -0.393234 -0.0293283)
(0.0348005 -0.400983 -2.12339e-05)
(-0.0713348 -0.393239 0.0295612)
(0.111684 -0.364725 2.09881)
(0.115146 -0.337717 -2.13392)
(-0.0649937 -0.370415 -0.0284954)
(0.0397648 -0.379294 -1.96797e-06)
(-0.0649906 -0.370365 0.0286196)
(0.115155 -0.337467 2.13724)
(0.118636 -0.30679 -2.13434)
(-0.0583574 -0.344516 -0.027665)
(0.0450452 -0.354629 2.40224e-05)
(-0.0583871 -0.344442 0.0277118)
(0.118634 -0.306792 2.13787)
(0.122083 -0.27222 -2.13911)
(-0.0516445 -0.315719 -0.0267245)
(0.0505582 -0.32704 2.06237e-05)
(-0.0516565 -0.315671 0.0267507)
(0.122082 -0.272214 2.13906)
(0.12528 -0.234111 -2.14086)
(-0.0449279 -0.284428 -0.0257303)
(0.0562246 -0.296601 1.19644e-05)
(-0.0449303 -0.284397 0.0257434)
(0.125285 -0.234115 2.14084)
(0.127425 -0.192805 -2.14331)
(-0.0379908 -0.251204 -0.024708)
(0.0622279 -0.263407 6.43723e-06)
(-0.0379902 -0.251192 0.0247142)
(0.12743 -0.192815 2.1433)
(0.125355 -0.149821 -2.14315)
(-0.0289678 -0.215831 -0.0236579)
(0.0691574 -0.227152 2.98411e-06)
(-0.0289668 -0.215826 0.0236603)
(0.125358 -0.149829 2.14315)
(0.139733 -0.579735 -1.76129)
(-0.0955101 -0.310878 0.012757)
(-0.0368188 -0.347623 1.7656e-07)
(-0.095511 -0.310879 -0.0127566)
(0.139731 -0.579738 1.7613)
(0.130532 -0.494064 -1.60018)
(-0.0919151 -0.385923 0.015365)
(-0.0334843 -0.37267 6.19387e-07)
(-0.0919164 -0.385925 -0.015364)
(0.130529 -0.494068 1.60018)
(0.131817 -0.468168 -1.58464)
(-0.0962214 -0.396972 0.00817839)
(-0.0389498 -0.380281 1.12266e-06)
(-0.0962248 -0.396975 -0.00817653)
(0.131811 -0.468173 1.58464)
(0.13006 -0.450773 -1.55616)
(-0.0985555 -0.40618 0.00377457)
(-0.0428219 -0.392695 1.44791e-06)
(-0.0985614 -0.406184 -0.00377188)
(0.130049 -0.450781 1.55616)
(0.127635 -0.438986 -1.53389)
(-0.0995311 -0.410896 0.00127488)
(-0.0442365 -0.401505 9.1127e-07)
(-0.0995393 -0.410897 -0.00127198)
(0.12762 -0.43899 1.53389)
(0.12526 -0.432264 -1.51529)
(-0.10015 -0.413936 -0.000280558)
(-0.0447139 -0.40779 -2.83883e-06)
(-0.100152 -0.413937 0.000278647)
(0.125263 -0.432265 1.51532)
(0.122846 -0.428743 -1.49931)
(-0.100351 -0.416487 -0.00123048)
(-0.0448563 -0.412565 -5.81673e-06)
(-0.100192 -0.416491 0.00122139)
(0.122704 -0.428736 1.49939)
(0.120805 -0.427286 -1.48519)
(-0.100636 -0.418967 -0.00181706)
(-0.0449468 -0.416466 -3.30049e-06)
(-0.100333 -0.41897 0.00180846)
(0.120582 -0.427282 1.48531)
(0.119439 -0.427267 -1.47242)
(-0.101328 -0.421579 -0.00217687)
(-0.045144 -0.41999 2.00614e-06)
(-0.100353 -0.421568 0.00216704)
(0.118551 -0.427255 1.47261)
(0.117649 -0.428275 -1.4606)
(-0.101428 -0.424399 -0.00240393)
(-0.0454109 -0.423405 -2.93277e-06)
(-0.100274 -0.424386 0.00238392)
(0.116533 -0.428272 1.46081)
(0.116146 -0.430075 -1.44955)
(-0.101735 -0.427463 -0.00253868)
(-0.0457957 -0.426873 -6.69998e-06)
(-0.10086 -0.42747 0.0025174)
(0.115258 -0.430093 1.44971)
(0.115001 -0.432526 -1.439)
(-0.102377 -0.430815 -0.00261378)
(-0.0462735 -0.430499 1.05248e-06)
(-0.101855 -0.430836 0.00261056)
(0.114499 -0.432554 1.43907)
(0.113458 -0.435474 -1.42869)
(-0.102637 -0.434462 -0.00265204)
(-0.0467857 -0.434323 1.62845e-06)
(-0.103086 -0.434473 0.00266824)
(0.114135 -0.435496 1.42868)
(0.11151 -0.438852 -1.41892)
(-0.102365 -0.438378 -0.00266531)
(-0.0471845 -0.438341 -3.11179e-06)
(-0.1036 -0.438351 0.00269009)
(0.113033 -0.43882 1.41883)
(0.110946 -0.442523 -1.40915)
(-0.10307 -0.442473 -0.00268739)
(-0.0476242 -0.442516 -6.20599e-06)
(-0.103799 -0.442418 0.00269555)
(0.111647 -0.442448 1.40906)
(0.110551 -0.446345 -1.39962)
(-0.103715 -0.44667 -0.00269277)
(-0.0479094 -0.446792 -2.13112e-06)
(-0.103304 -0.446626 0.00267944)
(0.109744 -0.446281 1.39955)
(0.109336 -0.450215 -1.39024)
(-0.103474 -0.450888 -0.00268609)
(-0.0477922 -0.451085 3.5574e-06)
(-0.102318 -0.45087 0.00266539)
(0.107726 -0.450196 1.39021)
(0.108206 -0.454041 -1.38093)
(-0.102979 -0.455035 -0.00266744)
(-0.0474711 -0.455304 -9.44445e-07)
(-0.101927 -0.455061 0.00263697)
(0.106894 -0.454069 1.38095)
(0.106919 -0.457699 -1.37187)
(-0.101745 -0.45902 -0.00263361)
(-0.0468686 -0.459327 1.50141e-06)
(-0.101787 -0.459066 0.00262843)
(0.106962 -0.457734 1.37186)
(0.107209 -0.460968 -1.36279)
(-0.101245 -0.462631 -0.00263096)
(-0.045957 -0.462962 5.48498e-06)
(-0.101401 -0.46265 0.00263574)
(0.107485 -0.460983 1.3628)
(0.107865 -0.463617 -1.35403)
(-0.100236 -0.465655 -0.00261807)
(-0.0445565 -0.466031 7.27899e-07)
(-0.100162 -0.465665 0.0026079)
(0.107935 -0.463645 1.35407)
(0.107634 -0.465489 -1.34566)
(-0.0973987 -0.467937 -0.00258102)
(-0.0426222 -0.468363 -5.09669e-06)
(-0.098318 -0.467955 0.00258348)
(0.108798 -0.465542 1.34561)
(0.108315 -0.466415 -1.33755)
(-0.0943195 -0.469279 -0.00254753)
(-0.0401368 -0.46975 -5.00195e-06)
(-0.0958214 -0.469282 0.00256108)
(0.110115 -0.466417 1.33745)
(0.111257 -0.466096 -1.32973)
(-0.0920978 -0.469468 -0.0025107)
(-0.037036 -0.469985 1.39925e-05)
(-0.0918398 -0.469443 0.00252745)
(0.111077 -0.466046 1.32971)
(0.114154 -0.464275 -1.32235)
(-0.0884403 -0.468259 -0.00248711)
(-0.0332145 -0.468831 1.51363e-05)
(-0.0872354 -0.46823 0.00248442)
(0.112732 -0.464255 1.32239)
(0.117326 -0.460739 -1.31553)
(-0.0836746 -0.465392 -0.00245517)
(-0.0287172 -0.46601 2.59707e-06)
(-0.0833714 -0.465397 0.00245201)
(0.116732 -0.460787 1.31548)
(0.121188 -0.455313 -1.30929)
(-0.0781919 -0.460697 -0.00242309)
(-0.0234985 -0.461297 -2.68838e-06)
(-0.0789327 -0.460717 0.00243645)
(0.121701 -0.455346 1.30913)
(0.125885 -0.447807 -1.3036)
(-0.0721472 -0.45403 -0.00242202)
(-0.0174464 -0.454586 2.12599e-06)
(-0.0723244 -0.454044 0.00244029)
(0.125839 -0.447813 1.3035)
(0.131331 -0.438016 -1.29855)
(-0.0655019 -0.445285 -0.00245895)
(-0.0108541 -0.446031 4.2372e-07)
(-0.0658836 -0.445289 0.00247809)
(0.131664 -0.438039 1.29849)
(0.137919 -0.425824 -1.29428)
(-0.0585577 -0.43431 -0.00240375)
(-0.0038293 -0.435396 -4.15067e-06)
(-0.0594646 -0.43431 0.00241601)
(0.138799 -0.425798 1.29423)
(0.145023 -0.411001 -1.2908)
(-0.0509396 -0.420966 -0.00232927)
(0.00397131 -0.422344 4.36072e-06)
(-0.0511839 -0.420988 0.00234928)
(0.145308 -0.411058 1.29077)
(0.152213 -0.39366 -1.2882)
(-0.0423718 -0.405252 -0.00223463)
(0.0124159 -0.406947 4.05458e-06)
(-0.0429836 -0.405259 0.00225507)
(0.153046 -0.393648 1.28813)
(0.160672 -0.373661 -1.28652)
(-0.0339502 -0.387182 -0.00211418)
(0.0212821 -0.389261 3.50233e-06)
(-0.0347222 -0.387193 0.00213496)
(0.161534 -0.373657 1.28637)
(0.169116 -0.351099 -1.28577)
(-0.0250168 -0.366849 -0.00196184)
(0.0305808 -0.369368 6.1314e-06)
(-0.025523 -0.366855 0.00198141)
(0.169614 -0.351067 1.28562)
(0.177514 -0.326098 -1.286)
(-0.0160341 -0.344402 -0.00177826)
(0.0401357 -0.347407 7.49928e-06)
(-0.0161223 -0.344397 0.00179171)
(0.177539 -0.326075 1.28592)
(0.185109 -0.298887 -1.28728)
(-0.0067946 -0.320041 -0.00157018)
(0.0497729 -0.323569 5.73373e-06)
(-0.00682038 -0.320033 0.00157786)
(0.18509 -0.298876 1.28725)
(0.191826 -0.269722 -1.28963)
(0.00215264 -0.29404 -0.00135357)
(0.0593252 -0.298098 3.66129e-06)
(0.00214226 -0.294035 0.00135776)
(0.191814 -0.269721 1.28963)
(0.196854 -0.239067 -1.29316)
(0.0107294 -0.266591 -0.00113825)
(0.068824 -0.271262 2.12208e-06)
(0.0107255 -0.26659 0.00114035)
(0.19685 -0.239072 1.29317)
(0.198733 -0.20773 -1.27977)
(0.0193024 -0.237542 -0.000874793)
(0.0784106 -0.243276 1.04451e-06)
(0.0193016 -0.237544 0.000875558)
(0.198734 -0.207737 1.27978)
(0.0912961 -0.533501 -1.47197)
(-0.050376 -0.333766 0.0182801)
(-0.0310045 -0.378068 1.91261e-07)
(-0.050377 -0.333766 -0.0182797)
(0.0912955 -0.533501 1.47198)
(0.0835307 -0.467781 -1.30171)
(-0.0479246 -0.397686 0.0246128)
(-0.0281955 -0.394962 5.00396e-07)
(-0.0479261 -0.397685 -0.0246119)
(0.0835291 -0.467781 1.30171)
(0.0804488 -0.455943 -1.26972)
(-0.0503243 -0.408095 0.0187025)
(-0.0315223 -0.399633 8.71102e-07)
(-0.0503272 -0.408095 -0.0187011)
(0.0804447 -0.455943 1.26972)
(0.0775143 -0.445269 -1.23567)
(-0.0526639 -0.415763 0.0152934)
(-0.0347334 -0.408839 1.25976e-06)
(-0.0526682 -0.415763 -0.0152913)
(0.0775075 -0.445268 1.23567)
(0.0745622 -0.438225 -1.20926)
(-0.0543008 -0.419492 0.0135286)
(-0.0365547 -0.414902 1.58091e-06)
(-0.0543051 -0.41949 -0.0135258)
(0.0745562 -0.438221 1.20926)
(0.0718864 -0.434599 -1.18745)
(-0.0555933 -0.421913 0.0124462)
(-0.0377483 -0.419035 4.34767e-07)
(-0.0555912 -0.421906 -0.0124425)
(0.0718963 -0.434604 1.18746)
(0.0695422 -0.432945 -1.16888)
(-0.0566805 -0.423974 0.0117357)
(-0.0387054 -0.422203 -5.38562e-06)
(-0.0566608 -0.423963 -0.0117239)
(0.069553 -0.432969 1.16891)
(0.0674701 -0.432538 -1.15266)
(-0.0576581 -0.426037 0.0112879)
(-0.0395623 -0.424952 -1.194e-05)
(-0.0576232 -0.426015 -0.0112629)
(0.0674732 -0.432587 1.15269)
(0.0656044 -0.433075 -1.13822)
(-0.0586035 -0.428239 0.0110093)
(-0.0404041 -0.427585 -3.49869e-05)
(-0.0585298 -0.428218 -0.0109473)
(0.065575 -0.433113 1.13824)
(0.0638146 -0.434329 -1.12507)
(-0.0595008 -0.430658 0.0107842)
(-0.0412525 -0.430286 -4.20543e-05)
(-0.0594169 -0.43066 -0.010709)
(0.0637798 -0.434312 1.12508)
(0.0621215 -0.436125 -1.11287)
(-0.0603809 -0.433334 0.0106396)
(-0.0421106 -0.43315 -3.23131e-05)
(-0.0603232 -0.433355 -0.0105752)
(0.0620962 -0.436064 1.11287)
(0.0604951 -0.438401 -1.10141)
(-0.0612437 -0.436242 0.0105592)
(-0.0429649 -0.436184 -1.52088e-05)
(-0.0612202 -0.436283 -0.0105206)
(0.0604905 -0.438298 1.1014)
(0.0588895 -0.441042 -1.09041)
(-0.0620326 -0.439365 0.0104762)
(-0.0437769 -0.439376 1.76188e-05)
(-0.0620747 -0.439413 -0.0104902)
(0.0589829 -0.440952 1.09043)
(0.0573809 -0.443901 -1.08009)
(-0.0627132 -0.442705 0.0103697)
(-0.0444894 -0.442736 4.19774e-05)
(-0.062799 -0.442712 -0.0104257)
(0.0575214 -0.443942 1.08012)
(0.0561214 -0.446955 -1.07001)
(-0.0633068 -0.446178 0.0103105)
(-0.0450675 -0.446204 2.6986e-05)
(-0.0633465 -0.446132 -0.0103509)
(0.0561464 -0.447134 1.07)
(0.0550854 -0.450206 -1.0603)
(-0.0636796 -0.449652 0.0102529)
(-0.0454182 -0.449678 -1.00969e-05)
(-0.063638 -0.449597 -0.0102402)
(0.0549438 -0.450388 1.06023)
(0.0542174 -0.45349 -1.05086)
(-0.0636898 -0.453085 0.0101706)
(-0.0454295 -0.453124 -3.89491e-05)
(-0.0636058 -0.453064 -0.0101137)
(0.0540162 -0.45354 1.05077)
(0.0536868 -0.456612 -1.0416)
(-0.0632989 -0.4564 0.0100848)
(-0.0450468 -0.456455 -3.88011e-05)
(-0.0632208 -0.456425 -0.0100335)
(0.0535522 -0.456518 1.04153)
(0.0536158 -0.459406 -1.03267)
(-0.0624198 -0.459478 0.00999156)
(-0.0441912 -0.459531 -2.64937e-06)
(-0.0623932 -0.459506 -0.00999653)
(0.0535785 -0.459277 1.03265)
(0.0541415 -0.461756 -1.02392)
(-0.0610193 -0.462139 0.00995757)
(-0.0427693 -0.462177 3.57276e-06)
(-0.0610048 -0.462141 -0.00997847)
(0.054151 -0.461658 1.02394)
(0.0553429 -0.463576 -1.01552)
(-0.0589378 -0.464164 0.00991614)
(-0.0406699 -0.464218 -1.48529e-06)
(-0.0589232 -0.46419 -0.00993695)
(0.0553863 -0.463465 1.01556)
(0.0572793 -0.464599 -1.00747)
(-0.056041 -0.465465 0.00980219)
(-0.0378092 -0.465534 2.99076e-05)
(-0.0560854 -0.465504 -0.00986402)
(0.0573887 -0.464523 1.00751)
(0.0601029 -0.464569 -0.999758)
(-0.0523159 -0.465928 0.00970066)
(-0.0340997 -0.465966 4.48516e-05)
(-0.0523928 -0.465891 -0.00977558)
(0.0602272 -0.464658 0.999788)
(0.063953 -0.463455 -0.992452)
(-0.0477339 -0.465279 0.00966263)
(-0.0294623 -0.465306 -7.98271e-06)
(-0.0477351 -0.465198 -0.00965756)
(0.0639439 -0.463624 0.992447)
(0.0687686 -0.461127 -0.985598)
(-0.0421537 -0.46331 0.00959896)
(-0.0238371 -0.463397 -3.59842e-05)
(-0.0421023 -0.463303 -0.00955025)
(0.0686609 -0.461161 0.985559)
(0.0745893 -0.457298 -0.979224)
(-0.0355253 -0.459923 0.00954047)
(-0.0171889 -0.460074 -8.15392e-06)
(-0.0355139 -0.45998 -0.00952405)
(0.0745059 -0.457195 0.97917)
(0.0814679 -0.451778 -0.973389)
(-0.0278606 -0.454977 0.00949646)
(-0.00948492 -0.455146 2.45049e-05)
(-0.0279023 -0.455002 -0.00951997)
(0.0814414 -0.451681 0.97334)
(0.0893819 -0.444436 -0.96812)
(-0.0191883 -0.448301 0.00946442)
(-0.000700868 -0.448456 1.44823e-05)
(-0.0192135 -0.448297 -0.00947555)
(0.0893673 -0.444359 0.968096)
(0.0983059 -0.435155 -0.963471)
(-0.00953541 -0.439766 0.00943254)
(0.00910938 -0.439871 1.84271e-05)
(-0.00956808 -0.439777 -0.00944983)
(0.0983605 -0.435063 0.963476)
(0.108214 -0.423905 -0.959574)
(0.00100805 -0.429384 0.0093552)
(0.0197597 -0.429508 3.35976e-05)
(0.00096664 -0.429378 -0.00939525)
(0.108317 -0.423862 0.959602)
(0.118926 -0.410665 -0.956417)
(0.0123365 -0.417153 0.00931085)
(0.0312149 -0.417428 1.88485e-05)
(0.0123169 -0.417151 -0.00933519)
(0.119019 -0.410669 0.956457)
(0.130266 -0.395386 -0.954081)
(0.0243182 -0.403068 0.00929678)
(0.0433318 -0.40352 2.21739e-05)
(0.0242752 -0.403088 -0.00932575)
(0.130384 -0.395402 0.954115)
(0.142108 -0.378128 -0.952664)
(0.0367145 -0.387182 0.0093268)
(0.0559166 -0.38781 2.8635e-05)
(0.0366619 -0.387187 -0.00936209)
(0.14218 -0.378202 0.952673)
(0.154096 -0.359035 -0.952205)
(0.0493209 -0.369602 0.00937197)
(0.068767 -0.370433 2.14185e-05)
(0.0492805 -0.369583 -0.00939798)
(0.154109 -0.359144 0.952199)
(0.165867 -0.338242 -0.952806)
(0.0618559 -0.350511 0.00944001)
(0.0816344 -0.351596 7.43451e-06)
(0.0618353 -0.350493 -0.00944887)
(0.165848 -0.338331 0.952801)
(0.17699 -0.315896 -0.954599)
(0.074014 -0.330141 0.00951279)
(0.0942544 -0.331547 2.65498e-06)
(0.0740025 -0.330138 -0.00951619)
(0.176973 -0.315946 0.9546)
(0.186923 -0.292105 -0.957739)
(0.0854699 -0.308826 0.00959279)
(0.106394 -0.310629 1.05545e-06)
(0.0854639 -0.30883 -0.00959468)
(0.186914 -0.292133 0.957746)
(0.194839 -0.267126 -0.96252)
(0.0960184 -0.286865 0.00972961)
(0.117894 -0.289229 2.73818e-07)
(0.0960159 -0.28687 -0.00973086)
(0.194836 -0.267145 0.96253)
(0.199502 -0.241669 -0.952777)
(0.105754 -0.264091 0.0100211)
(0.128599 -0.267504 -1.2019e-07)
(0.105754 -0.264097 -0.0100221)
(0.199503 -0.241683 0.952788)
(0.0631717 -0.522273 -1.30422)
(-0.0303077 -0.340703 0.0160139)
(-0.026371 -0.382474 1.77151e-07)
(-0.0303085 -0.340702 -0.0160136)
(0.0631722 -0.522271 1.30422)
(0.0586805 -0.46036 -1.13915)
(-0.0291858 -0.40061 0.0220542)
(-0.0252976 -0.400085 4.09692e-07)
(-0.029187 -0.400609 -0.0220536)
(0.0586801 -0.460358 1.13915)
(0.0559412 -0.451568 -1.10277)
(-0.0307419 -0.411507 0.0164574)
(-0.0279978 -0.405471 6.80034e-07)
(-0.0307439 -0.411505 -0.0164563)
(0.0559394 -0.451565 1.10276)
(0.053214 -0.443662 -1.06757)
(-0.0327754 -0.419156 0.0133434)
(-0.0307462 -0.414291 1.02371e-06)
(-0.0327782 -0.419153 -0.0133418)
(0.0532114 -0.443658 1.06757)
(0.0504296 -0.438736 -1.04025)
(-0.0345838 -0.423071 0.0118122)
(-0.0326918 -0.420016 1.44068e-06)
(-0.0345862 -0.423067 -0.0118099)
(0.0504282 -0.43873 1.04025)
(0.0477976 -0.436422 -1.01778)
(-0.0362196 -0.425631 0.0109106)
(-0.0342451 -0.42381 1.52767e-06)
(-0.0362187 -0.425626 -0.0109073)
(0.0478024 -0.43642 1.01778)
(0.0453832 -0.435546 -0.998754)
(-0.0377235 -0.427716 0.0103415)
(-0.0356234 -0.426642 8.02764e-07)
(-0.0377147 -0.427712 -0.010335)
(0.0453835 -0.435552 0.998756)
(0.0431678 -0.435568 -0.982231)
(-0.0391447 -0.429689 0.00997433)
(-0.036932 -0.429059 -9.50416e-08)
(-0.0391266 -0.429684 -0.00996273)
(0.0431528 -0.435583 0.982233)
(0.0411052 -0.436259 -0.967626)
(-0.0405284 -0.431726 0.00972825)
(-0.0382238 -0.431359 -2.65736e-06)
(-0.0404935 -0.431722 -0.00970725)
(0.0410611 -0.436269 0.967622)
(0.039124 -0.437479 -0.954435)
(-0.0418758 -0.433904 0.00954518)
(-0.0395086 -0.433701 -2.52785e-06)
(-0.0418383 -0.433905 -0.00952065)
(0.0390742 -0.43747 0.954424)
(0.0372277 -0.439123 -0.942268)
(-0.0431992 -0.436259 0.00940996)
(-0.0407947 -0.43616 2.28317e-07)
(-0.0431748 -0.436262 -0.00938895)
(0.0371955 -0.439096 0.942253)
(0.0354169 -0.441116 -0.930932)
(-0.0444801 -0.438795 0.00930714)
(-0.0420571 -0.43876 3.23459e-06)
(-0.0444699 -0.438803 -0.00929483)
(0.0354186 -0.441076 0.930919)
(0.0336941 -0.443374 -0.920174)
(-0.0456659 -0.441496 0.00921385)
(-0.0432395 -0.441494 7.80115e-06)
(-0.0456832 -0.441508 -0.00921694)
(0.0337646 -0.443353 0.920174)
(0.0321388 -0.445817 -0.910141)
(-0.0467023 -0.44433 0.00912423)
(-0.0442712 -0.444342 9.43704e-06)
(-0.0467385 -0.444341 -0.00913743)
(0.0322355 -0.445863 0.910147)
(0.0308686 -0.448403 -0.900404)
(-0.0475438 -0.44724 0.00904852)
(-0.0450932 -0.447253 3.67332e-06)
(-0.0475635 -0.447244 -0.00905526)
(0.0308878 -0.448508 0.900397)
(0.0299211 -0.451084 -0.891086)
(-0.0480764 -0.45015 0.00897506)
(-0.0455958 -0.450155 -4.7642e-06)
(-0.0480633 -0.45015 -0.00896668)
(0.029823 -0.451177 0.891058)
(0.0293249 -0.453741 -0.8821)
(-0.0481676 -0.452991 0.00889342)
(-0.045664 -0.452985 -9.46728e-06)
(-0.0481363 -0.45299 -0.00887564)
(0.0291696 -0.453764 0.882061)
(0.0292214 -0.456228 -0.873354)
(-0.0477334 -0.455673 0.00881029)
(-0.0452087 -0.455658 -9.18126e-06)
(-0.0477047 -0.455671 -0.00879592)
(0.0290963 -0.456182 0.873324)
(0.0297532 -0.458413 -0.864963)
(-0.0466617 -0.458082 0.00872896)
(-0.0441173 -0.458057 -5.39182e-06)
(-0.046647 -0.458075 -0.00872702)
(0.0296958 -0.458342 0.864952)
(0.0310724 -0.460178 -0.856766)
(-0.0448451 -0.460085 0.00865793)
(-0.0422743 -0.460053 -4.04922e-06)
(-0.0448325 -0.460074 -0.00866245)
(0.0310619 -0.460113 0.856769)
(0.0332878 -0.461399 -0.848914)
(-0.0421418 -0.461541 0.00858587)
(-0.0395426 -0.461508 -2.78997e-06)
(-0.0421321 -0.461538 -0.00859399)
(0.0333147 -0.46134 0.848924)
(0.0364961 -0.461911 -0.841379)
(-0.0384201 -0.462322 0.00850348)
(-0.0358032 -0.462291 2.28519e-06)
(-0.0384352 -0.462326 -0.00851959)
(0.0365722 -0.461877 0.841392)
(0.0408493 -0.46155 -0.83416)
(-0.0336087 -0.462296 0.0084252)
(-0.0309643 -0.462259 4.39328e-06)
(-0.0336353 -0.462289 -0.00844171)
(0.0409297 -0.461574 0.834167)
(0.046465 -0.460204 -0.827307)
(-0.02764 -0.461297 0.0083594)
(-0.0249413 -0.461259 -1.82094e-06)
(-0.027635 -0.461283 -0.00836049)
(0.046463 -0.460258 0.827299)
(0.0533451 -0.457743 -0.820853)
(-0.0204147 -0.459179 0.00829377)
(-0.0176647 -0.459152 -5.44222e-06)
(-0.020389 -0.459177 -0.0082847)
(0.0532807 -0.457758 0.820831)
(0.0615127 -0.453996 -0.814818)
(-0.0118897 -0.455822 0.00823001)
(-0.00911041 -0.455807 -1.57639e-06)
(-0.0118843 -0.455828 -0.0082251)
(0.0614669 -0.453962 0.814795)
(0.0709926 -0.448828 -0.809265)
(-0.00207999 -0.451115 0.00816702)
(0.000732229 -0.451126 3.50248e-06)
(-0.00209746 -0.451112 -0.00816925)
(0.0709927 -0.448777 0.809247)
(0.0817572 -0.442135 -0.804233)
(0.00897492 -0.44498 0.00811696)
(0.0118451 -0.44504 3.8828e-06)
(0.00896227 -0.44497 -0.00811985)
(0.0817818 -0.442082 0.804224)
(0.0937404 -0.433837 -0.799736)
(0.0212151 -0.437353 0.0080959)
(0.0241689 -0.437431 4.6748e-06)
(0.0211999 -0.437346 -0.00810192)
(0.0938083 -0.433786 0.799738)
(0.106841 -0.423874 -0.795858)
(0.0345297 -0.428142 0.00807872)
(0.0376127 -0.428246 6.47819e-06)
(0.0345137 -0.428138 -0.00808819)
(0.106941 -0.423846 0.795868)
(0.120853 -0.412226 -0.792669)
(0.0487342 -0.417337 0.00807398)
(0.0519575 -0.417531 5.07847e-06)
(0.0487271 -0.417338 -0.00808262)
(0.120955 -0.412223 0.792683)
(0.135541 -0.398907 -0.790238)
(0.0636163 -0.405017 0.0080885)
(0.0669841 -0.405332 5.82326e-06)
(0.0635999 -0.405026 -0.00809862)
(0.135651 -0.398927 0.790253)
(0.150648 -0.383975 -0.788669)
(0.0788929 -0.391264 0.00813016)
(0.0824363 -0.391724 5.90046e-06)
(0.0788716 -0.391273 -0.00814007)
(0.150736 -0.384022 0.788679)
(0.165797 -0.367527 -0.788045)
(0.0942611 -0.376191 0.00819861)
(0.0980287 -0.376834 3.93056e-06)
(0.0942455 -0.376196 -0.00820588)
(0.165848 -0.367584 0.788052)
(0.180565 -0.349667 -0.788514)
(0.109365 -0.359955 0.00829806)
(0.113425 -0.360837 1.55569e-06)
(0.109358 -0.35996 -0.00830234)
(0.180586 -0.349714 0.788521)
(0.19447 -0.330499 -0.79026)
(0.12381 -0.342746 0.00842906)
(0.128267 -0.34395 3.1746e-07)
(0.123808 -0.342753 -0.00843196)
(0.19448 -0.330532 0.79027)
(0.206954 -0.310075 -0.793512)
(0.137185 -0.324834 0.00859099)
(0.142193 -0.326467 -2.70398e-07)
(0.137186 -0.324842 -0.00859317)
(0.20696 -0.310099 0.793524)
(0.217313 -0.288545 -0.798658)
(0.149124 -0.306458 0.00883981)
(0.154882 -0.308706 -4.95311e-07)
(0.149125 -0.306466 -0.00884147)
(0.217318 -0.288563 0.79867)
(0.224651 -0.26644 -0.791504)
(0.159398 -0.287387 0.00927317)
(0.165997 -0.29072 -5.40994e-07)
(0.1594 -0.287394 -0.00927443)
(0.224656 -0.266454 0.791517)
(0.0426779 -0.519188 -1.19679)
(-0.018378 -0.34516 0.0136419)
(-0.0190525 -0.381836 1.37825e-07)
(-0.0183783 -0.345158 -0.0136417)
(0.0426791 -0.519186 1.19679)
(0.0398199 -0.458616 -1.03845)
(-0.0178021 -0.402343 0.018831)
(-0.0188566 -0.401122 2.75655e-07)
(-0.0178028 -0.402341 -0.0188306)
(0.0398206 -0.458613 1.03844)
(0.0376891 -0.450185 -1.00128)
(-0.0189085 -0.413242 0.0130708)
(-0.0210429 -0.407465 4.70712e-07)
(-0.0189095 -0.413239 -0.0130702)
(0.0376891 -0.450181 1.00128)
(0.0353906 -0.443281 -0.966343)
(-0.0206278 -0.420785 0.0100451)
(-0.0232954 -0.416489 7.34341e-07)
(-0.0206289 -0.420782 -0.0100441)
(0.0353905 -0.443276 0.966337)
(0.0329014 -0.439291 -0.939068)
(-0.0224131 -0.424852 0.00863715)
(-0.0251869 -0.42231 1.05863e-06)
(-0.0224139 -0.424848 -0.00863553)
(0.0329023 -0.439285 0.939061)
(0.0304208 -0.437585 -0.916639)
(-0.0241963 -0.427558 0.00785131)
(-0.0269172 -0.426117 1.36233e-06)
(-0.0241955 -0.427554 -0.00784902)
(0.0304244 -0.437579 0.916633)
(0.0280372 -0.437062 -0.897695)
(-0.02595 -0.429703 0.00737944)
(-0.0285811 -0.428889 1.68011e-06)
(-0.0259468 -0.4297 -0.0073758)
(0.0280397 -0.43706 0.897689)
(0.0257579 -0.437245 -0.881299)
(-0.0276765 -0.431637 0.00708409)
(-0.0302223 -0.431177 2.10093e-06)
(-0.0276715 -0.431636 -0.00707841)
(0.0257554 -0.437246 0.881292)
(0.0235634 -0.437935 -0.866874)
(-0.0293859 -0.433544 0.0068882)
(-0.0318625 -0.433283 2.57511e-06)
(-0.029378 -0.433543 -0.00688003)
(0.0235521 -0.437935 0.866864)
(0.0214347 -0.439027 -0.853883)
(-0.0310774 -0.435509 0.0067486)
(-0.0335013 -0.435367 3.07947e-06)
(-0.0310695 -0.435509 -0.00673943)
(0.021422 -0.439024 0.853871)
(0.0193746 -0.440446 -0.841963)
(-0.0327361 -0.437577 0.00664522)
(-0.0351229 -0.437508 3.48799e-06)
(-0.0327308 -0.437578 -0.00663709)
(0.0193687 -0.440439 0.84195)
(0.0174064 -0.442128 -0.830921)
(-0.0343299 -0.439766 0.00656515)
(-0.0366902 -0.439741 3.4454e-06)
(-0.0343266 -0.439768 -0.00655974)
(0.0174155 -0.44212 0.83091)
(0.0155708 -0.444011 -0.820499)
(-0.0358028 -0.44207 0.00649663)
(-0.0381444 -0.442067 3.08119e-06)
(-0.0358034 -0.442076 -0.00649542)
(0.0156022 -0.444016 0.820492)
(0.0139483 -0.446047 -0.810818)
(-0.0370827 -0.444458 0.00643556)
(-0.0394088 -0.444469 2.23878e-06)
(-0.0370878 -0.44447 -0.00643681)
(0.0139822 -0.446079 0.810814)
(0.0126373 -0.448188 -0.80146)
(-0.0380825 -0.446889 0.00638067)
(-0.040394 -0.446905 8.54011e-07)
(-0.0380882 -0.446902 -0.00638034)
(0.0126365 -0.448238 0.801452)
(0.0117253 -0.45037 -0.792536)
(-0.0386911 -0.44931 0.00632947)
(-0.0409855 -0.449324 -4.42142e-07)
(-0.0386949 -0.449321 -0.0063255)
(0.0116777 -0.450411 0.792522)
(0.0113109 -0.452508 -0.783964)
(-0.0387828 -0.451656 0.00627814)
(-0.0410566 -0.451662 -1.07027e-06)
(-0.0387848 -0.451659 -0.00627207)
(0.0112401 -0.452519 0.783946)
(0.0115314 -0.454498 -0.775647)
(-0.0382312 -0.453848 0.00622752)
(-0.0404826 -0.453847 -1.26864e-06)
(-0.0382319 -0.453843 -0.00622248)
(0.0114705 -0.454479 0.775632)
(0.0125379 -0.456235 -0.76768)
(-0.0368989 -0.45579 0.00617925)
(-0.0391264 -0.455785 -1.42521e-06)
(-0.0368986 -0.45578 -0.00617704)
(0.0125049 -0.456202 0.767671)
(0.0144858 -0.457612 -0.759898)
(-0.0346449 -0.45738 0.00613366)
(-0.0368464 -0.457374 -1.48122e-06)
(-0.0346414 -0.457369 -0.00613401)
(0.0144765 -0.457578 0.759895)
(0.0175154 -0.458514 -0.752436)
(-0.0313249 -0.458508 0.00608994)
(-0.0334998 -0.458503 -1.27532e-06)
(-0.0313197 -0.4585 -0.0060923)
(0.0175247 -0.458485 0.752435)
(0.0217582 -0.45882 -0.745262)
(-0.0268034 -0.459059 0.00604727)
(-0.0289537 -0.459059 -7.54504e-07)
(-0.0268023 -0.459054 -0.00605115)
(0.0217844 -0.458803 0.745262)
(0.0273453 -0.458403 -0.738365)
(-0.0209694 -0.458913 0.00600796)
(-0.023093 -0.45892 -3.53451e-07)
(-0.0209712 -0.45891 -0.0060114)
(0.0273716 -0.458404 0.738364)
(0.0343797 -0.457145 -0.731786)
(-0.01373 -0.45795 0.00597373)
(-0.0158216 -0.457966 -4.0397e-07)
(-0.0137281 -0.457948 -0.00597444)
(0.0343819 -0.457155 0.73178)
(0.0429142 -0.454926 -0.725554)
(-0.00501049 -0.456052 0.00594413)
(-0.00706917 -0.45608 -5.44188e-07)
(-0.00500683 -0.45605 -0.00594278)
(0.042897 -0.454927 0.725545)