/*--------------------------------*- C++ -*----------------------------------*\
  =========                 |
  \\      /  F ield         | OpenFOAM: The Open Source CFD Toolbox
   \\    /   O peration     | Website:  https://openfoam.org
    \\  /    A nd           | Version:  9
     \\/     M anipulation  |
\*---------------------------------------------------------------------------*/
FoamFile
{
    format      ascii;
    class       volScalarField;
    location    "0.95";
    object      nut;
}
// * * * * * * * * * * * * * * * * * * * * * * * * * * * * * * * * * * * * * //

dimensions      [0 2 -1 0 0 0 0];

internalField   nonuniform List<scalar> 
36360
(
0.0011147
0.000918204
0.000446055
0.000419342
0.000263316
0.000211732
0.000191194
0.000175515
0.000315339
0.000168556
0.000202388
0.000159368
0.00014946
0.000139211
0.000162661
0.000162188
0.000146911
0.000146909
0.000159134
0.000159135
0.000138523
0.000138523
0.000162182
0.000162182
0.000168519
0.000315252
0.000159372
0.000202377
0.000139211
0.000149451
0.000162188
0.000162662
0.000918145
0.00111487
0.000419328
0.000446086
0.000211726
0.000263328
0.000175514
0.000191195
0.00190839
0.00156672
0.00160671
0.00131123
0.000398891
0.000317287
0.000350275
0.000276537
0.00075639
0.000257325
0.000565591
0.000198366
0.000177484
0.000121957
0.000159116
0.000126451
0.000156478
0.000156439
0.000147812
0.0001478
0.000115984
0.000115982
0.000123475
0.000123474
0.000257045
0.000755932
0.000198266
0.00056532
0.000121936
0.000177415
0.000126444
0.000159088
0.00156664
0.00190898
0.00131115
0.00160708
0.00031726
0.000398956
0.000276519
0.000350316
0.00215706
0.00178376
0.00207505
0.00171184
0.000434227
0.000349395
0.000423171
0.000338926
0.000924655
0.000316221
0.000868867
0.000295622
0.000195965
0.000121489
0.000189762
0.000121266
0.000165062
0.000164997
0.000162548
0.000162487
0.000112193
0.00011219
0.000113086
0.000113083
0.00031568
0.000923982
0.00029518
0.000868279
0.000121447
0.000195855
0.000121231
0.000189667
0.0017837
0.00215796
0.00171178
0.00207582
0.000349361
0.000434324
0.000338894
0.000423255
0.00220727
0.00182808
0.00219388
0.00181622
0.000440226
0.000355378
0.000438761
0.000353855
0.000957832
0.000328322
0.000949232
0.000325294
0.000199498
0.000121805
0.000198617
0.000121712
0.000166398
0.000166319
0.000166145
0.000166067
0.000111912
0.000111908
0.000111961
0.000111957
0.00032771
0.000957088
0.000324702
0.00094851
0.000121759
0.000199379
0.000121667
0.000198501
0.00182803
0.00220828
0.00181617
0.00219486
0.000355343
0.000440334
0.00035382
0.000438866
0.00221217
0.00183259
0.00221225
0.00183258
0.000440604
0.000355854
0.000440671
0.000355888
0.000960893
0.000329129
0.000961013
0.000329284
0.000199753
0.000121809
0.000199788
0.000121823
0.000166421
0.000166342
0.000166452
0.000166372
0.000111888
0.000111884
0.000111886
0.000111881
0.00032851
0.00096014
0.000328665
0.000960261
0.000121762
0.000199633
0.000121776
0.000199667
0.00183254
0.00221321
0.00183253
0.00221328
0.00035582
0.000440714
0.000355854
0.000440781
0.00221156
0.00183207
0.00221265
0.00183304
0.000440401
0.000355668
0.000440588
0.000355851
0.000960621
0.000328905
0.000961329
0.000329234
0.000199684
0.000121769
0.000199781
0.000121799
0.000166344
0.000166265
0.000166408
0.000166328
0.000111861
0.000111857
0.000111877
0.000111873
0.000328286
0.000959867
0.000328613
0.000960575
0.000121723
0.000199564
0.000121753
0.000199661
0.00183203
0.0022126
0.001833
0.00221369
0.000355634
0.000440512
0.000355817
0.000440699
0.00220979
0.00183047
0.00221129
0.00183184
0.00044006
0.000355304
0.000440308
0.000355564
0.000959453
0.000328355
0.000960489
0.000328801
0.000199494
0.000121696
0.00019964
0.000121739
0.000166246
0.000166167
0.00016632
0.000166241
0.000111818
0.000111814
0.000111836
0.000111831
0.000327738
0.000958699
0.000328182
0.000959736
0.00012165
0.000199375
0.000121692
0.00019952
0.00183043
0.00221082
0.00183179
0.00221233
0.00035527
0.000440171
0.00035553
0.000440419
0.00220746
0.00182842
0.00220922
0.00182999
0.000439644
0.000354861
0.000439931
0.000355159
0.000957877
0.000327623
0.000959099
0.000328155
0.000199244
0.000121612
0.000199418
0.00012166
0.000166126
0.000166048
0.000166211
0.000166132
0.000111775
0.000111771
0.000111794
0.000111789
0.000327008
0.000957124
0.000327538
0.000958345
0.000121566
0.000199125
0.000121614
0.000199299
0.00182837
0.00220849
0.00182994
0.00221026
0.000354828
0.000439755
0.000355125
0.000440042
0.0022047
0.00182605
0.00220673
0.00182779
0.000439169
0.000354369
0.000439491
0.000354693
0.000956045
0.000326825
0.000957398
0.000327387
0.000198956
0.000121518
0.000199151
0.000121572
0.000166015
0.000165937
0.000166098
0.000166019
0.000111724
0.000111719
0.000111746
0.000111742
0.000326211
0.000955292
0.000326773
0.000956644
0.000121472
0.000198837
0.000121526
0.000199031
0.001826
0.00220573
0.00182774
0.00220776
0.000354335
0.00043928
0.000354659
0.000439601
0.00220156
0.00182342
0.00220381
0.00182531
0.000438638
0.000353836
0.000438991
0.000354184
0.000954001
0.000325919
0.000955473
0.000326543
0.000198635
0.00012141
0.000198848
0.000121471
0.000165876
0.000165798
0.000165972
0.000165894
0.000111664
0.000111659
0.000111691
0.000111687
0.000325307
0.000953247
0.00032593
0.000954719
0.000121365
0.000198515
0.000121425
0.000198728
0.00182337
0.00220259
0.00182526
0.00220485
0.000353801
0.000438748
0.00035415
0.000439101
0.00219804
0.00182052
0.0022005
0.00182258
0.000438047
0.000353248
0.000438431
0.000353624
0.000951746
0.000324964
0.00095334
0.000325616
0.00019828
0.000121292
0.000198511
0.000121358
0.000165743
0.000165665
0.000165837
0.000165759
0.000111594
0.00011159
0.000111626
0.000111622
0.000324353
0.000950991
0.000325005
0.000952586
0.000121246
0.00019816
0.000121312
0.000198391
0.00182047
0.00219907
0.00182252
0.00220153
0.000353213
0.000438157
0.000353589
0.000438541
0.00219413
0.00181733
0.0021968
0.00181956
0.000437392
0.000352606
0.000437811
0.000353013
0.00094927
0.000323892
0.000950995
0.000324611
0.000197888
0.000121156
0.000198139
0.000121231
0.00016558
0.000165503
0.000165688
0.000165611
0.000111513
0.000111509
0.000111551
0.000111547
0.000323283
0.000948514
0.000324001
0.000950239
0.000121111
0.000197768
0.000121185
0.000198019
0.00181728
0.00219515
0.0018195
0.00219782
0.00035257
0.000437501
0.000352978
0.00043792
0.00218979
0.00181382
0.00219268
0.00181622
0.000436666
0.000351899
0.000437122
0.00035234
0.000946546
0.000322757
0.000948419
0.000323513
0.000197457
0.000121007
0.000197729
0.000121089
0.000165421
0.000165345
0.000165528
0.000165452
0.000111421
0.000111416
0.000111464
0.00011146
0.000322151
0.00094579
0.000322905
0.000947663
0.000120962
0.000197337
0.000121044
0.000197609
0.00181377
0.0021908
0.00181616
0.0021937
0.000351863
0.000436774
0.000352304
0.00043723
0.00218497
0.00180997
0.0021881
0.00181255
0.000435863
0.000351127
0.000436358
0.000351601
0.000943561
0.00032151
0.000945576
0.000322327
0.000196983
0.000120839
0.000197277
0.000120931
0.000165243
0.000165167
0.000165361
0.000165285
0.000111315
0.00011131
0.000111365
0.000111361
0.000320907
0.000942807
0.000321722
0.00094482
0.000120794
0.000196864
0.000120886
0.000197158
0.00180991
0.00218598
0.00181249
0.00218912
0.000351091
0.00043597
0.000351565
0.000436466
0.00217965
0.00180574
0.00218304
0.00180851
0.000434978
0.00035029
0.000435516
0.000350798
0.000940295
0.000320151
0.000942459
0.000321026
0.000196465
0.000120652
0.000196782
0.000120753
0.000165044
0.000164969
0.000165172
0.000165096
0.000111194
0.00011119
0.000111252
0.000111247
0.000319552
0.000939542
0.000320424
0.000941704
0.000120607
0.000196346
0.000120708
0.000196663
0.00180568
0.00218066
0.00180845
0.00218405
0.000350254
0.000435085
0.000350762
0.000435624
0.00217382
0.00180113
0.00217747
0.00180409
0.000434006
0.000349376
0.000434589
0.000349924
0.000936732
0.000318673
0.00093905
0.000319611
0.000195899
0.000120443
0.000196241
0.000120556
0.000164827
0.000164753
0.000164965
0.00016489
0.000111057
0.000111053
0.000111123
0.000111119
0.000318078
0.00093598
0.000319013
0.000938297
0.000120399
0.00019578
0.000120511
0.000196122
0.00180106
0.00217482
0.00180403
0.00217848
0.00034934
0.000434113
0.000349888
0.000434696
0.00216744
0.00179609
0.00217137
0.00179927
0.000432944
0.00034838
0.000433573
0.00034897
0.000932855
0.000317071
0.000935335
0.000318073
0.000195283
0.000120212
0.000195651
0.000120336
0.000164589
0.000164515
0.000164737
0.000164663
0.000110903
0.000110899
0.000110977
0.000110973
0.000316481
0.000932103
0.000317479
0.000934583
0.000120168
0.000195165
0.000120292
0.000195532
0.00179602
0.00216844
0.00179921
0.00217237
0.000348343
0.000433051
0.000348934
0.00043368
0.0021605
0.00179062
0.00216471
0.00179402
0.000431787
0.000347301
0.000432465
0.000347933
0.000928644
0.000315339
0.000931296
0.000316408
0.000194616
0.000119957
0.00019501
0.000120093
0.000164331
0.000164258
0.000164489
0.000164416
0.00011073
0.000110726
0.000110814
0.00011081
0.000314754
0.000927894
0.000315819
0.000930545
0.000119913
0.000194498
0.000120049
0.000194892
0.00179055
0.00216149
0.00179396
0.00216571
0.000347264
0.000431893
0.000347897
0.000432571
0.00215297
0.0017847
0.00215748
0.00178833
0.000430528
0.000346139
0.000431258
0.000346813
0.000924082
0.000313474
0.000926914
0.00031461
0.000193895
0.000119677
0.000194316
0.000119825
0.000164053
0.000163981
0.000164221
0.000164148
0.000110536
0.000110532
0.000110631
0.000110627
0.000312893
0.000923333
0.000314026
0.000926164
0.000119633
0.000193777
0.000119782
0.000194198
0.00178463
0.00215396
0.00178826
0.00215847
0.000346102
0.000430633
0.000346776
0.000431363
0.0021448
0.00177831
0.00214964
0.00178218
0.000429164
0.000344904
0.000429947
0.000345613
0.000919146
0.000311473
0.00092217
0.000312677
0.000193119
0.000119369
0.000193568
0.000119532
0.000163755
0.000163684
0.000163932
0.000163861
0.000110321
0.000110318
0.000110427
0.000110423
0.000310897
0.000918398
0.000312099
0.000921421
0.000119326
0.000193002
0.000119488
0.000193451
0.00177823
0.00214578
0.00178211
0.00215063
0.000344867
0.000429268
0.000345576
0.000430052
0.00213597
0.00177139
0.00214115
0.00177553
0.000427695
0.000343614
0.000428531
0.000344347
0.00091381
0.000309336
0.000917038
0.000310607
0.000192289
0.000119034
0.000192765
0.00011921
0.000163435
0.000163366
0.000163622
0.000163552
0.000110084
0.00011008
0.0001102
0.000110196
0.000308766
0.000913064
0.000310034
0.000916291
0.000118992
0.000192173
0.000119168
0.000192649
0.00177131
0.00213694
0.00177546
0.00214212
0.000343577
0.000427799
0.00034431
0.000428635
0.00212647
0.0017638
0.00213198
0.00176831
0.000426123
0.0003423
0.000427011
0.000343039
0.000908071
0.00030707
0.0009115
0.000308404
0.000191405
0.00011867
0.000191908
0.00011886
0.000163095
0.000163027
0.000163292
0.000163223
0.000109822
0.000109818
0.000109951
0.000109947
0.000306507
0.000907327
0.000307837
0.000910754
0.000118628
0.000191289
0.000118818
0.000191792
0.00176371
0.00212744
0.00176823
0.00213295
0.000342262
0.000426226
0.000343001
0.000427114
0.00211638
0.00175562
0.00212217
0.00176038
0.00042445
0.00034094
0.000425388
0.000341711
0.000901983
0.000304686
0.00090558
0.000306077
0.000190464
0.000118275
0.000190996
0.000118481
0.000162736
0.000162668
0.000162941
0.000162873
0.000109535
0.000109532
0.000109677
0.000109673
0.00030413
0.000901242
0.000305517
0.000904836
0.000118234
0.000190348
0.000118439
0.00019088
0.00175554
0.00211733
0.0017603
0.00212313
0.000340902
0.000424552
0.000341673
0.000425491
0.00210571
0.00174702
0.00211179
0.00175199
0.000422678
0.0003395
0.000423666
0.000340311
0.000895571
0.000302192
0.000899328
0.000303636
0.000189466
0.000117851
0.000190026
0.000118071
0.000162358
0.000162291
0.000162571
0.000162504
0.000109223
0.000109219
0.000109377
0.000109373
0.000301643
0.000894832
0.000303082
0.000898586
0.00011781
0.000189351
0.00011803
0.000189911
0.00174693
0.00210666
0.00175191
0.00211274
0.000339462
0.00042278
0.000340273
0.000423768
0.00209452
0.00173799
0.00210085
0.00174317
0.000420814
0.000337982
0.000421847
0.000338832
0.000888853
0.000299599
0.000892759
0.000301089
0.000188413
0.000117396
0.000189
0.000117632
0.000161963
0.000161898
0.000162183
0.000162118
0.000108884
0.00010888
0.000109051
0.000109047
0.000299058
0.000888116
0.000300543
0.00089202
0.000117356
0.000188299
0.000117591
0.000188886
0.0017379
0.00209545
0.00174308
0.00210179
0.000337944
0.000420914
0.000338794
0.000421948
0.00208283
0.00172857
0.0020894
0.00173394
0.000418865
0.000336393
0.00041994
0.000337278
0.000881857
0.00029692
0.000885896
0.00029845
0.000187309
0.000116912
0.000187921
0.000117162
0.000161553
0.00016149
0.00016178
0.000161715
0.000108518
0.000108514
0.000108698
0.000108695
0.000296386
0.000881123
0.000297911
0.000885161
0.000116872
0.000187196
0.000117122
0.000187808
0.00172847
0.00208376
0.00173384
0.00209033
0.000336354
0.000418964
0.000337239
0.00042004
0.00207072
0.00171881
0.00207749
0.00172434
0.000416841
0.000334739
0.000417952
0.000335655
0.000874623
0.000294171
0.000878775
0.000295731
0.000186159
0.000116398
0.000186793
0.000116662
0.000161132
0.000161069
0.000161362
0.000161299
0.000108125
0.000108122
0.000108319
0.000108315
0.000293646
0.000873892
0.000295201
0.000878041
0.000116359
0.000186047
0.000116623
0.00018668
0.00171871
0.00207164
0.00172424
0.00207841
0.0003347
0.000416939
0.000335616
0.000418051
0.00205827
0.00170878
0.0020652
0.00171444
0.000414756
0.000333031
0.000415896
0.000333973
0.000867202
0.000291374
0.000871438
0.000292954
0.000184969
0.000115856
0.000185622
0.000116134
0.000160701
0.000160639
0.000160934
0.000160872
0.000107706
0.000107702
0.000107912
0.000107909
0.000290857
0.000866474
0.000292432
0.000870708
0.000115818
0.000184857
0.000116095
0.00018551
0.00170867
0.00205917
0.00171433
0.00206611
0.000332992
0.000414854
0.000333934
0.000415994
0.00204557
0.00169855
0.00205261
0.00170429
0.000412626
0.00033128
0.000413787
0.000332242
0.000859648
0.000288551
0.000863941
0.000290139
0.000183745
0.000115288
0.000184414
0.000115578
0.000160264
0.000160204
0.000160498
0.000160437
0.00010726
0.000107257
0.00010748
0.000107476
0.000288042
0.000858924
0.000289625
0.000863214
0.00011525
0.000183635
0.00011554
0.000184303
0.00169844
0.00204646
0.00170418
0.00205351
0.00033124
0.000412722
0.000332202
0.000413883
0.00203272
0.0016882
0.00203982
0.00169399
0.000410468
0.000329499
0.000411641
0.000330474
0.000852025
0.000285725
0.000856343
0.000287309
0.000182497
0.000114695
0.000183176
0.000114997
0.000159824
0.000159766
0.000160058
0.000159998
0.000106789
0.000106786
0.000107021
0.000107018
0.000285224
0.000851304
0.000286803
0.000855619
0.000114658
0.000182387
0.00011496
0.000183066
0.00168809
0.00203361
0.00169387
0.00204071
0.000329459
0.000410563
0.000330434
0.000411736
0.00201984
0.00167782
0.00202694
0.00168361
0.0004083
0.000327702
0.000409475
0.000328683
0.000844397
0.00028292
0.000848706
0.000284488
0.000181232
0.000114081
0.000181918
0.000114393
0.000159386
0.000159329
0.000159617
0.000159559
0.000106295
0.000106291
0.000106538
0.000106535
0.000282428
0.000843679
0.000283991
0.000847986
0.000114045
0.000181123
0.000114357
0.000181809
0.0016777
0.00202071
0.00168349
0.00202781
0.000327662
0.000408394
0.000328643
0.000409569
0.00200703
0.00166751
0.00201407
0.00167325
0.000406142
0.000325904
0.00040731
0.000326884
0.000836833
0.000280161
0.000841099
0.0002817
0.00017996
0.000113447
0.000180648
0.000113769
0.000158952
0.000158896
0.000159179
0.000159122
0.000105778
0.000105775
0.000106032
0.000106029
0.000279677
0.000836119
0.000281212
0.000840382
0.000113411
0.000179852
0.000113733
0.00018054
0.00166738
0.00200789
0.00167313
0.00201494
0.000325863
0.000406235
0.000326843
0.000407403
0.00199441
0.00165735
0.00200134
0.00166299
0.000404013
0.00032412
0.000405164
0.000325091
0.000829403
0.000277471
0.000833591
0.00027897
0.00017869
0.000112797
0.000179376
0.000113126
0.000158527
0.000158472
0.000158747
0.000158692
0.000105241
0.000105238
0.000105505
0.000105502
0.000276995
0.000828693
0.00027849
0.000832878
0.000112762
0.000178583
0.00011309
0.000179268
0.00165722
0.00199526
0.00166287
0.0020022
0.000324079
0.000404105
0.00032505
0.000405256
0.00198208
0.00164743
0.00198885
0.00165294
0.000401934
0.000322366
0.000403057
0.00032332
0.000822176
0.000274872
0.00082625
0.000276321
0.000177432
0.000112133
0.00017811
0.000112468
0.000158111
0.000158057
0.000158327
0.000158273
0.000104685
0.000104682
0.000104958
0.000104955
0.000274405
0.000821468
0.000275849
0.000825541
0.000112099
0.000177326
0.000112433
0.000178003
0.0016473
0.00198292
0.00165281
0.0019897
0.000322325
0.000402024
0.000323279
0.000403148
0.00197011
0.00163785
0.0019767
0.00164318
0.00039992
0.000320655
0.000401009
0.000321585
0.000815214
0.000272388
0.000819145
0.000273775
0.000176195
0.00011146
0.000176861
0.000111799
0.000157708
0.000157656
0.000157917
0.000157864
0.000104114
0.000104111
0.000104394
0.000104391
0.000271928
0.00081451
0.000273311
0.00081844
0.000111426
0.00017609
0.000111765
0.000176755
0.00163771
0.00197094
0.00164305
0.00197753
0.000320614
0.000400009
0.000321544
0.000401099
0.00195835
0.00162853
0.00196488
0.00163376
0.000397977
0.000318999
0.000399032
0.000319902
0.000808539
0.000270031
0.00081233
0.000271352
0.000174988
0.00011078
0.000175638
0.000111122
0.000157323
0.000157272
0.000157523
0.000157471
0.000103529
0.000103526
0.000103816
0.000103813
0.000269579
0.000807839
0.000270895
0.000811628
0.000110746
0.000174883
0.000111088
0.000175533
0.0016284
0.00195916
0.00163362
0.0019657
0.000318957
0.000398066
0.00031986
0.000399121
0.00194506
0.00161829
0.0019528
0.00162432
0.000396014
0.000317338
0.000397107
0.000318263
0.000801643
0.000267737
0.0008057
0.000269049
0.000173795
0.000110095
0.000174444
0.00011044
0.000156955
0.000156904
0.000157147
0.000157097
0.000102933
0.00010293
0.000103225
0.000103222
0.000267292
0.00080095
0.000268599
0.000805003
0.000110062
0.000173692
0.000110406
0.00017434
0.00161814
0.00194586
0.00162417
0.00195361
0.000317297
0.000396101
0.000318221
0.000397194
0.00192174
0.00159929
0.00193632
0.00161154
0.000393334
0.000315019
0.000394952
0.00031645
0.000790078
0.00026461
0.000797601
0.000266585
0.000172348
0.000109385
0.000173202
0.000109749
0.000156563
0.000156514
0.000156779
0.000156729
0.000102329
0.000102326
0.000102625
0.000102622
0.000264178
0.0007894
0.000266144
0.000796913
0.000109353
0.000172246
0.000109716
0.000173099
0.00159915
0.00192251
0.00161139
0.00193711
0.000314977
0.000393418
0.000316409
0.000395038
0.00186419
0.00153699
0.00190025
0.00157867
0.000386933
0.000307453
0.000391131
0.000312689
0.00075376
0.000255657
0.000777586
0.000261515
0.000168469
0.000108389
0.000171078
0.000108968
0.000155855
0.00015581
0.000156281
0.000156234
0.000101692
0.000101689
0.000102019
0.000102016
0.00025526
0.000753116
0.000261095
0.000776921
0.000108358
0.000168372
0.000108936
0.000170978
0.00153683
0.0018649
0.00157852
0.00190099
0.000307411
0.000387012
0.000312647
0.000391213
0.00143478
0.00117263
0.000523618
0.000467239
0.00135293
0.00110574
0.000509103
0.000451252
0.000411206
0.000185574
0.000206826
0.000157044
0.00038332
0.000180606
0.00020593
0.000157797
0.000147299
0.000147294
0.000158814
0.000158816
0.000147147
0.000147143
0.000159109
0.000159111
0.000185501
0.000411034
0.000157058
0.000206814
0.000180546
0.000383179
0.000157808
0.00020592
0.00117253
0.00143509
0.000467197
0.000523686
0.00110566
0.00135319
0.000451215
0.000509156
0.00254288
0.00209559
0.00211316
0.00173024
0.00235846
0.00194195
0.00197171
0.00161358
0.00110308
0.000370464
0.000814357
0.000250249
0.00100026
0.000335875
0.000742828
0.00023434
0.000169106
0.000169002
0.000151996
0.000151968
0.000165735
0.00016565
0.000150897
0.000150875
0.000369845
0.00110234
0.000250014
0.000813868
0.000335379
0.000999631
0.000234153
0.000742419
0.00209554
0.00254392
0.00173014
0.00211383
0.00194188
0.00235932
0.00161349
0.00197227
0.00292054
0.00242189
0.00279119
0.00230994
0.00269113
0.00222917
0.00257851
0.00213177
0.00136522
0.000495574
0.00127595
0.00045153
0.0012293
0.000438359
0.00115218
0.000402586
0.000185915
0.000185731
0.000178932
0.000178797
0.000179973
0.000179831
0.000174448
0.000174354
0.00049446
0.00136417
0.000450611
0.00127503
0.000437454
0.00122839
0.00040184
0.00115139
0.0024219
0.00292212
0.00230992
0.00279254
0.00222916
0.00269244
0.00213174
0.00257964
0.00300768
0.00249673
0.00298283
0.00247557
0.00276471
0.00229246
0.00274416
0.0022749
0.00142288
0.000523327
0.00140703
0.000515959
0.00127766
0.000460283
0.00126462
0.000454579
0.00018932
0.000189101
0.000188456
0.000188247
0.000182467
0.000182305
0.000181846
0.00018169
0.000522061
0.00142173
0.000514738
0.00140591
0.000459256
0.00127666
0.000453587
0.00126365
0.00249676
0.00300946
0.0024756
0.00298454
0.00229246
0.00276619
0.00227489
0.00274558
0.00301935
0.00250647
0.00301806
0.00250553
0.00277364
0.00230004
0.002773
0.00229953
0.00142966
0.000525943
0.00142933
0.000526104
0.00128286
0.000462161
0.00128279
0.000462342
0.000189577
0.000189355
0.000189617
0.000189395
0.000182634
0.000182471
0.000182668
0.000182504
0.000524654
0.00142848
0.000524818
0.00142816
0.000461118
0.00128184
0.0004613
0.00128178
0.00250651
0.00302118
0.00250557
0.00301988
0.00230004
0.00277516
0.00229953
0.00277451
0.00301895
0.00250616
0.00302052
0.00250753
0.00277316
0.00229962
0.00277454
0.00230084
0.00142954
0.000525816
0.00143059
0.000526404
0.00128269
0.000461989
0.00128361
0.000462484
0.00018953
0.000189307
0.000189621
0.000189398
0.000182582
0.000182419
0.000182658
0.000182494
0.000524526
0.00142836
0.000525113
0.00142941
0.000460946
0.00128167
0.000461439
0.00128259
0.0025062
0.00302079
0.00250757
0.00302236
0.00229962
0.00277468
0.00230084
0.00277606
0.00301651
0.00250407
0.00301879
0.00250607
0.00277091
0.00229768
0.00277293
0.00229945
0.00142794
0.000524904
0.00142952
0.000525758
0.00128123
0.000461199
0.00128261
0.000461906
0.000189396
0.000189174
0.000189514
0.000189292
0.000182471
0.000182308
0.000182566
0.000182402
0.000523613
0.00142676
0.000524466
0.00142834
0.000460157
0.00128021
0.000460863
0.00128159
0.00250411
0.00301835
0.0025061
0.00302063
0.00229767
0.00277243
0.00229945
0.00277445
0.00301319
0.00250124
0.00301585
0.00250355
0.00276789
0.00229509
0.00277024
0.00229714
0.00142576
0.000523674
0.00142759
0.000524662
0.00127924
0.000460132
0.00128085
0.000460959
0.000189213
0.000188992
0.000189355
0.000189133
0.000182318
0.000182156
0.000182435
0.000182272
0.000522385
0.00142457
0.000523371
0.0014264
0.000459092
0.00127822
0.000459917
0.00127983
0.00250127
0.00301502
0.00250358
0.00301768
0.00229509
0.0027694
0.00229714
0.00277176
0.00300934
0.00249799
0.00301226
0.0025005
0.00276437
0.00229212
0.002767
0.00229437
0.00142323
0.000522298
0.00142523
0.000523349
0.00127695
0.00045895
0.00127871
0.000459828
0.00018903
0.00018881
0.00018917
0.000188949
0.000182171
0.000182009
0.000182284
0.000182122
0.000521011
0.00142205
0.00052206
0.00142404
0.000457912
0.00127593
0.000458788
0.00127769
0.00249802
0.00301116
0.00250054
0.00301409
0.00229211
0.00276588
0.00229436
0.00276852
0.00300504
0.00249439
0.00300824
0.0024971
0.00276042
0.00228883
0.00276333
0.00229126
0.00142045
0.00052079
0.00142258
0.000521915
0.00127441
0.000457643
0.00127631
0.000458593
0.00018882
0.000188602
0.000188976
0.000188756
0.000181996
0.000181836
0.000182125
0.000181964
0.000519506
0.00141927
0.000520628
0.0014214
0.000456608
0.00127339
0.000457556
0.00127529
0.00249442
0.00300686
0.00249713
0.00301007
0.00228882
0.00276193
0.00229125
0.00276484
0.00300031
0.00249045
0.00300379
0.00249335
0.00275607
0.00228522
0.00275921
0.00228783
0.00141743
0.000519191
0.00141969
0.000520365
0.00127165
0.000456256
0.00127367
0.000457249
0.000188617
0.0001884
0.000188768
0.00018855
0.000181831
0.000181671
0.000181955
0.000181794
0.00051791
0.00141624
0.000519081
0.00141851
0.000455223
0.00127062
0.000456214
0.00127265
0.00249047
0.00300213
0.00249337
0.0030056
0.00228521
0.00275757
0.00228782
0.00276072
0.00299515
0.00248615
0.00299887
0.00248927
0.00275129
0.00228128
0.00275466
0.00228409
0.00141415
0.000517455
0.00141656
0.000518711
0.00126863
0.000454736
0.0012708
0.000455809
0.000188386
0.00018817
0.000188554
0.000188337
0.000181637
0.000181478
0.000181777
0.000181617
0.000516179
0.00141296
0.000517431
0.00141538
0.000453706
0.00126761
0.000454777
0.00126978
0.00248617
0.00299696
0.00248929
0.00300069
0.00228126
0.00275278
0.00228408
0.00275616
0.00298953
0.0024815
0.0029935
0.00248483
0.00274604
0.00227698
0.00274966
0.00228001
0.0014106
0.000515611
0.00141317
0.000516928
0.00126535
0.000453117
0.00126768
0.000454247
0.000188159
0.000187945
0.000188325
0.00018811
0.00018145
0.000181292
0.000181586
0.000181428
0.000514339
0.00140941
0.000515652
0.00141198
0.000452091
0.00126432
0.000453217
0.00126665
0.00248152
0.00299133
0.00248484
0.0029953
0.00227696
0.00274753
0.00227999
0.00275115
0.00298339
0.00247643
0.00298763
0.00248001
0.00274026
0.00227229
0.00274416
0.00227553
0.00140675
0.00051361
0.00140949
0.00051502
0.00126176
0.000451345
0.00126427
0.000452566
0.000187904
0.000187691
0.000188087
0.000187873
0.000181236
0.000181079
0.000181387
0.000181229
0.000512343
0.00140556
0.00051375
0.00140831
0.000450324
0.00126074
0.000451541
0.00126324
0.00247645
0.00298519
0.00248003
0.00298943
0.00227227
0.00274175
0.00227551
0.00274565
0.00297672
0.00247096
0.00298123
0.00247475
0.00273392
0.00226715
0.0027381
0.00227063
0.00140258
0.000511476
0.0014055
0.000512962
0.00125785
0.00044945
0.00126055
0.000450744
0.000187648
0.000187437
0.000187831
0.000187619
0.000181022
0.000180867
0.000181173
0.000181017
0.000510215
0.0014014
0.000511696
0.00140432
0.000448433
0.00125683
0.000449724
0.00125953
0.00247098
0.0029785
0.00247476
0.00298303
0.00226712
0.0027354
0.0022706
0.00273959
0.00296945
0.00246505
0.00297427
0.00246907
0.00272701
0.00226155
0.00273148
0.00226525
0.00139806
0.000509189
0.0014012
0.000510768
0.00125361
0.000447406
0.00125649
0.000448785
0.000187382
0.000187174
0.000187573
0.000187363
0.000180796
0.000180642
0.000180955
0.000180801
0.000507934
0.00139688
0.000509509
0.00140001
0.000446395
0.00125259
0.00044777
0.00125547
0.00246506
0.00297123
0.00246908
0.00297605
0.00226152
0.00272848
0.00226523
0.00273295
0.00296156
0.00245863
0.0029667
0.00246291
0.00271949
0.00225547
0.00272427
0.00225942
0.00139318
0.00050673
0.00139653
0.000508412
0.00124901
0.000445198
0.00125208
0.000446663
0.000187098
0.000186891
0.000187299
0.000187091
0.00018055
0.000180398
0.000180719
0.000180566
0.000505482
0.001392
0.000507159
0.00139535
0.000444193
0.001248
0.000445653
0.00125106
0.00245864
0.00296333
0.00246292
0.00296847
0.00225544
0.00272095
0.00225939
0.00272574
0.00295299
0.00245167
0.00295847
0.00245622
0.0027113
0.00224888
0.00271643
0.00225309
0.00138792
0.000504097
0.00139146
0.000505872
0.00124404
0.000442825
0.0012473
0.000444374
0.000186794
0.00018659
0.000187004
0.000186798
0.000180287
0.000180136
0.000180464
0.000180312
0.000502856
0.00138674
0.000504626
0.00139028
0.000441826
0.00124302
0.000443371
0.00124628
0.00245167
0.00295475
0.00245623
0.00296023
0.00224885
0.00271276
0.00225306
0.00271789
0.00294372
0.00244415
0.00294955
0.00244899
0.00270241
0.00224171
0.00270789
0.00224623
0.00138226
0.000501287
0.001386
0.000503154
0.00123865
0.000440284
0.00124212
0.000441918
0.000186473
0.000186271
0.000186692
0.000186488
0.000180009
0.00017986
0.000180194
0.000180044
0.000500054
0.00138108
0.000501915
0.00138483
0.000439291
0.00123764
0.000440921
0.0012411
0.00244415
0.00294547
0.00244899
0.0029513
0.00224167
0.00270386
0.00224619
0.00270934
0.00293375
0.00243607
0.00293993
0.00244118
0.00269283
0.00223397
0.00269865
0.00223876
0.00137618
0.000498298
0.00138014
0.000500256
0.00123286
0.000437574
0.00123654
0.000439294
0.000186137
0.000185937
0.000186363
0.000186162
0.000179717
0.00017957
0.000179909
0.000179761
0.000497073
0.00137501
0.000499025
0.00137896
0.000436589
0.00123185
0.000438304
0.00123552
0.00243606
0.00293549
0.00244118
0.00294167
0.00223392
0.00269427
0.00223872
0.0027001
0.00292306
0.00242741
0.0029296
0.00243281
0.00268255
0.00222567
0.00268872
0.00223074
0.0013697
0.000495129
0.00137386
0.000497178
0.00122667
0.000434695
0.00123055
0.0004365
0.000185786
0.000185589
0.00018602
0.000185821
0.000179412
0.000179267
0.00017961
0.000179464
0.000493912
0.00136852
0.000495955
0.00137268
0.000433718
0.00122565
0.000435518
0.00122953
0.00242739
0.00292478
0.0024328
0.00293133
0.00222562
0.00268398
0.00223069
0.00269016
0.00291165
0.00241817
0.00291854
0.00242386
0.00267156
0.00221679
0.00267808
0.00222215
0.00136279
0.000491779
0.00136716
0.000493918
0.00122005
0.000431649
0.00122414
0.000433537
0.00018542
0.000185226
0.000185661
0.000185465
0.000179094
0.00017895
0.000179298
0.000179154
0.000490572
0.00136162
0.000492705
0.00136599
0.00043068
0.00121904
0.000432563
0.00122313
0.00241815
0.00291336
0.00242384
0.00292026
0.00221673
0.00267298
0.0022221
0.00267951
0.00289952
0.00240836
0.00290677
0.00241433
0.00265989
0.00220736
0.00266675
0.00221299
0.00135547
0.000488254
0.00136005
0.00049048
0.00121305
0.000428442
0.00121733
0.000430409
0.000185042
0.00018485
0.000185289
0.000185096
0.000178764
0.000178623
0.000178974
0.000178831
0.000487056
0.0013543
0.000489276
0.00135888
0.000427483
0.00121204
0.000429444
0.00121632
0.00240833
0.00290122
0.00241431
0.00290847
0.0022073
0.00266129
0.00221293
0.00266816
0.0028867
0.002398
0.00289429
0.00240424
0.00264755
0.0021974
0.00265473
0.00220329
0.00134775
0.000484561
0.00135252
0.000486869
0.00120566
0.000425085
0.00121013
0.000427125
0.000184651
0.000184463
0.000184904
0.000184714
0.000178424
0.000178285
0.000178638
0.000178498
0.000483375
0.00134658
0.000485675
0.00135135
0.000424135
0.00120465
0.000426169
0.00120912
0.00239796
0.00288838
0.00240421
0.00289598
0.00219734
0.00264894
0.00220323
0.00265613
0.00287323
0.0023871
0.00288113
0.0023936
0.00263459
0.00218695
0.00264208
0.00219308
0.00133964
0.000480713
0.00134461
0.000483096
0.00119791
0.000421589
0.00120255
0.000423696
0.000184251
0.000184066
0.000184508