/*--------------------------------*- C++ -*----------------------------------*\
  =========                 |
  \\      /  F ield         | OpenFOAM: The Open Source CFD Toolbox
   \\    /   O peration     | Website:  https://openfoam.org
    \\  /    A nd           | Version:  9
     \\/     M anipulation  |
\*---------------------------------------------------------------------------*/
FoamFile
{
    format      ascii;
    class       surfaceScalarField;
    location    "0.95";
    object      phi;
}
// * * * * * * * * * * * * * * * * * * * * * * * * * * * * * * * * * * * * * //

dimensions      [0 3 -1 0 0 0 0];

internalField   nonuniform List<scalar> 
104044
(
2.27131e-07
-6.50515e-05
3.47014e-07
6.42071e-05
2.70228e-07
-5.09015e-05
-2.77996e-06
-7.97068e-08
5.31355e-05
8.52762e-07
1.00497e-07
4.16288e-07
-2.16847e-07
-2.56436e-06
-4.18521e-08
7.2128e-07
5.66629e-08
-6.02598e-05
6.05502e-05
-5.55771e-05
-1.77726e-08
5.28716e-05
7.11785e-08
-3.47732e-08
-2.47017e-09
-5.7427e-05
-9.25518e-07
5.79216e-05
3.53722e-07
-5.86646e-05
-6.48864e-07
1.23944e-09
5.91729e-05
1.36832e-07
-2.51401e-10
-1.13438e-06
2.13773e-07
-1.06122e-06
5.16259e-10
1.61742e-07
-3.51683e-09
-5.87884e-05
5.78486e-05
-5.79651e-05
5.93138e-10
5.73121e-05
-2.21163e-09
2.0477e-10
1.38413e-13
-5.87899e-05
-6.48845e-07
5.9297e-05
1.42999e-07
-5.87897e-05
-6.48845e-07
-1.23693e-09
5.92968e-05
1.42998e-07
4.18849e-14
-1.06335e-06
1.65885e-07
-1.06335e-06
-5.15538e-10
1.65885e-07
-9.76944e-14
-5.77865e-05
5.71383e-05
-5.77863e-05
-5.93151e-10
5.7138e-05
-5.02129e-14
-2.04618e-10
2.46904e-09
-5.86639e-05
-6.48876e-07
5.91722e-05
1.36845e-07
-5.7426e-05
-9.25455e-07
7.96928e-08
5.79205e-05
3.53672e-07
2.51187e-10
-1.06123e-06
1.61749e-07
-1.13437e-06
4.18496e-08
2.13765e-07
3.51498e-09
-5.79643e-05
5.73113e-05
-5.87872e-05
1.77742e-08
5.78475e-05
2.21099e-09
3.47747e-08
-2.27127e-07
-5.09004e-05
-2.77971e-06
5.31343e-05
8.52627e-07
-6.50519e-05
3.47124e-07
6.42076e-05
2.70113e-07
-1.00495e-07
-2.5642e-06
7.21165e-07
4.1643e-07
-2.16992e-07
-5.66455e-08
-5.55771e-05
5.28718e-05
-6.02608e-05
6.05513e-05
-7.11724e-08
2.61882e-07
-6.33421e-05
2.52546e-08
6.2621e-05
4.33955e-07
-5.48773e-05
-5.05657e-07
-6.57863e-08
5.59124e-05
-2.01849e-07
2.63055e-07
2.23073e-07
3.78881e-07
-1.878e-06
-7.78449e-08
4.77118e-07
-2.58077e-08
-6.07543e-05
6.08054e-05
-5.10028e-05
4.57642e-08
5.04256e-05
1.89528e-08
9.72793e-09
-9.24049e-09
-5.82843e-05
-6.70347e-07
5.84085e-05
4.89541e-07
-5.95316e-05
-1.73648e-07
1.24249e-09
5.96436e-05
5.11755e-08
-5.79414e-09
-9.62618e-07
5.27854e-07
-4.75284e-07
1.45492e-09
1.09376e-07
-8.6443e-09
-5.69032e-05
5.62873e-05
-5.68287e-05
5.50914e-10
5.66458e-05
-7.44598e-09
6.73826e-10
-7.92944e-13
-5.96726e-05
-1.49708e-07
5.98075e-05
1.60015e-08
-5.96723e-05
-1.49709e-07
-1.24223e-09
5.98073e-05
1.59968e-08
-2.24684e-13
-4.61563e-07
8.74853e-08
-4.61562e-07
-1.45364e-09
8.74813e-08
7.92159e-14
-5.66774e-05
5.65282e-05
-5.66771e-05
-5.51965e-10
5.6528e-05
2.24799e-13
-6.73555e-10
9.23472e-09
-5.95309e-05
-1.73645e-07
5.96429e-05
5.11438e-08
-5.82832e-05
-6.70236e-07
6.5742e-08
5.84075e-05
4.89438e-07
5.79108e-09
-4.75297e-07
1.09362e-07
-9.62472e-07
7.78142e-08
5.27739e-07
8.63885e-09
-5.68279e-05
5.6645e-05
-5.69022e-05
-4.57539e-08
5.62864e-05
7.4431e-09
-9.72949e-09
-2.61877e-07
-5.48761e-05
-5.05889e-07
5.59115e-05
-2.01911e-07
-6.33425e-05
2.50799e-08
6.26214e-05
4.34145e-07
-2.63049e-07
-1.87799e-06
4.77006e-07
2.2309e-07
3.78902e-07
2.58481e-08
-5.1003e-05
5.04255e-05
-6.07554e-05
6.08063e-05
-1.8925e-08
1.8943e-07
-6.20325e-05
-3.94938e-07
6.15677e-05
6.70351e-07
-5.64812e-05
7.51652e-07
-2.04711e-08
5.68824e-05
-9.42992e-07
2.29926e-07
-1.76801e-07
5.35388e-07
3.64389e-07
-4.47116e-08
-6.5851e-07
-1.33488e-07
-6.07068e-05
6.04454e-05
-5.06312e-05
1.14e-07
5.11353e-05
-7.82796e-08
8.04937e-08
-1.26736e-08
-5.83934e-05
-3.23303e-07
5.83437e-05
3.65257e-07
-5.96214e-05
8.09717e-09
4.67817e-10
5.95588e-05
4.12739e-08
-9.24536e-09
-4.24513e-07
4.04176e-07
-1.52349e-08
8.35673e-10
2.73693e-08
-8.63818e-09
-5.59524e-05
5.57518e-05
-5.6621e-05
2.70812e-10
5.66202e-05
-9.18635e-09
4.11739e-10
6.19731e-13
-5.98069e-05
3.02745e-08
5.97682e-05
8.83244e-09
-5.98066e-05
3.02688e-08
-4.70667e-10
5.9768e-05
8.83962e-09
-1.89493e-12
9.18549e-09
-7.70605e-09
9.18316e-09
-8.40398e-10
-7.70604e-09
1.20139e-13
-5.65378e-05
5.65684e-05
-5.65376e-05
-2.73718e-10
5.65681e-05
-1.52425e-13
-4.14201e-10
1.26696e-08
-5.96208e-05
8.08454e-09
5.95583e-05
4.12626e-08
-5.83925e-05
-3.23264e-07
2.04114e-08
5.83428e-05
3.65187e-07
9.2269e-09
-1.52388e-08
2.73472e-08
-4.24462e-07
4.46565e-08
4.041e-07
8.62761e-09
-5.66202e-05
5.66194e-05
-5.59516e-05
-1.13983e-07
5.57509e-05
9.17915e-09
-8.048e-08
-1.89417e-07
-5.64805e-05
7.51549e-07
5.68819e-05
-9.43132e-07
-6.20329e-05
-3.95187e-07
6.1568e-05
6.70669e-07
-2.29921e-07
3.64197e-07
-6.58588e-07
-1.77061e-07
5.35681e-07
1.33558e-07
-5.06309e-05
5.11349e-05
-6.07076e-05
6.0446e-05
7.83337e-08
9.9631e-08
-6.11981e-05
-6.56835e-07
6.08811e-05
8.74201e-07
-5.7186e-05
9.51121e-07
2.07687e-08
5.7437e-05
-1.1232e-06
1.41859e-07
-5.54227e-07
7.81939e-07
9.00699e-07
3.64085e-09
-1.06604e-06
-2.27339e-07
-6.00729e-05
5.96434e-05
-5.17139e-05
1.64419e-07
5.22733e-05
-1.81741e-07
1.40407e-07
-6.83241e-09
-5.82963e-05
-2.82982e-07
5.8253e-05
3.53903e-07
-5.94929e-05
-3.39221e-08
5.06138e-11
5.94275e-05
9.24614e-08
-1.17125e-08
-2.87547e-07
3.50258e-07
-1.03163e-08
2.0291e-10
6.43555e-08
-4.54983e-09
-5.56115e-05
5.54975e-05
-5.66029e-05
5.86137e-11
5.65643e-05
-6.88839e-09
1.28869e-10
-4.49853e-12
-5.97267e-05
-7.03674e-09
5.96831e-05
5.07073e-08
-5.97265e-05
-7.03765e-09
-5.92358e-11
5.96829e-05
5.06963e-08
6.98739e-12
1.17399e-08
2.995e-08
1.1733e-08
-1.95821e-10
2.99641e-08
2.17164e-12
-5.65802e-05
5.65732e-05
-5.658e-05
-5.70217e-11
5.6573e-05
1.77721e-12
-1.29769e-10
6.87101e-09
-5.94924e-05
-3.39117e-08
5.9427e-05
9.23657e-08
-5.82955e-05
-2.82921e-07
-2.08128e-08
5.82522e-05
3.53916e-07
1.16677e-08
-1.03251e-08
6.43895e-08
-2.87498e-07
-3.69272e-09
3.50146e-07
4.54822e-09
-5.6602e-05
5.65635e-05
-5.56107e-05
-1.64391e-07
5.54967e-05
6.87707e-09
-1.40385e-07
-9.9604e-08
-5.71856e-05
9.51212e-07
5.74366e-05
-1.12342e-06
-6.11983e-05
-6.57038e-07
6.08812e-05
8.74538e-07
-1.41831e-07
9.00704e-07
-1.06625e-06
-5.5445e-07
7.82266e-07
2.2744e-07
-5.17134e-05
5.22728e-05
-6.00734e-05
5.96438e-05
1.81827e-07
2.80582e-08
-6.06036e-05
-7.24973e-07
6.03464e-05
9.54117e-07
-5.76264e-05
9.11535e-07
7.45592e-08
5.77754e-05
-1.10701e-06
6.04987e-08
-7.03669e-07
9.20656e-07
9.34546e-07
5.40964e-08
-1.1176e-06
-2.94964e-07
-5.92014e-05
5.87714e-05
-5.2766e-05
1.95091e-07
5.31875e-05
-2.61689e-07
1.80125e-07
-3.01217e-10
-5.82297e-05
-2.66122e-07
5.82123e-05
3.58401e-07
-5.93636e-05
-7.24395e-08
1.55327e-10
5.92963e-05
1.39266e-07
-3.70389e-09
-2.71412e-07
3.5253e-07
-5.66456e-08
4.63114e-11
1.16807e-07
1.57469e-09
-5.54078e-05
5.53352e-05
-5.6506e-05
2.33986e-10
5.64349e-05
-1.62447e-09
9.49483e-11
-7.25736e-13
-5.96383e-05
-4.04545e-08
5.95889e-05
9.0007e-08
-5.9638e-05
-4.04551e-08
-1.56898e-10
5.95886e-05
8.99983e-08
9.56875e-12
-2.59861e-08
7.0882e-08
-2.59905e-08
-3.51148e-11
7.08955e-08
4.11821e-12
-5.65473e-05
5.65071e-05
-5.65471e-05
-2.29642e-10
5.65069e-05
4.4202e-12
-9.1725e-11
3.34472e-10
-5.93631e-05
-7.24183e-08
5.92958e-05
1.39184e-07
-5.8229e-05
-2.6604e-07
-7.46289e-08
5.82116e-05
3.584e-07
3.66748e-09
-5.66357e-08
1.16838e-07
-2.71326e-07
-5.41748e-08
3.52406e-07
-1.57414e-09
-5.65052e-05
5.64341e-05
-5.54071e-05
-1.95054e-07
5.53345e-05
1.61806e-09
-1.80094e-07
-2.80033e-08
-5.76261e-05
9.11656e-07
5.77751e-05
-1.10726e-06
-6.06037e-05
-7.25194e-07
6.03464e-05
9.5448e-07
-6.04457e-08
9.34663e-07
-1.11789e-06
-7.03877e-07
9.20988e-07
2.9509e-07
-5.27656e-05
5.31871e-05
-5.92017e-05
5.87716e-05
2.61803e-07
-2.27833e-08
-6.01098e-05
-7.1745e-07
5.98831e-05
9.66903e-07
-5.78853e-05
8.37878e-07
9.67418e-08
5.79637e-05
-1.0359e-06
3.52161e-10
-7.21372e-07
9.57666e-07
8.69112e-07
8.66687e-08
-1.0653e-06
-3.40611e-07
-5.8367e-05
5.79901e-05
-5.3537e-05
2.11514e-07
5.38228e-05
-3.16912e-07
2.02653e-07
6.59495e-09
-5.81956e-05
-2.53184e-07
5.81762e-05
3.62788e-07
-5.92256e-05
-9.148e-08
7.72084e-10
5.91496e-05
1.73258e-07
3.13347e-09
-2.55659e-07
3.55802e-07
-8.20957e-08
4.01122e-10
1.55503e-07
8.20639e-09
-5.52774e-05
5.52275e-05
-5.63571e-05
8.59282e-10
5.6273e-05
4.85352e-09
4.85703e-10
4.79897e-12
-5.95339e-05
-5.93732e-08
5.94714e-05
1.22609e-07
-5.95336e-05
-5.93744e-08
-7.67652e-10
5.94712e-05
1.22611e-07
3.96557e-12
-5.01208e-08
1.05519e-07
-5.01221e-08
-3.9587e-10
1.0552e-07
4.79329e-12
-5.64575e-05
5.6399e-05
-5.64572e-05
-8.5554e-10
5.63987e-05
4.62214e-12
-4.8132e-10
-6.59756e-09
-5.92252e-05
-9.14557e-08
5.91492e-05
1.73223e-07
-5.8195e-05
-2.53089e-07
-9.68001e-08
5.81756e-05
3.6272e-07
-3.13038e-09
-8.20741e-08
1.55469e-07
-2.55571e-07
-8.67291e-08
3.55742e-07
-8.20884e-09
-5.63564e-05
5.62723e-05
-5.52767e-05
-2.11471e-07
5.52269e-05
-4.85498e-09
-2.02614e-07
2.28596e-08
-5.7885e-05
8.38022e-07
5.79634e-05
-1.03617e-06
-6.01097e-05
-7.17653e-07
5.9883e-05
9.6724e-07
-2.84187e-10
8.69245e-07
-1.06557e-06
-7.2159e-07
9.58013e-07
3.40752e-07
-5.35367e-05
5.38225e-05
-5.83671e-05
5.79902e-05
3.17045e-07
-5.80007e-08
-5.96702e-05
-6.94129e-07
5.94623e-05
9.59948e-07
-5.80111e-05
7.64142e-07
1.07735e-07
5.80327e-05
-9.51474e-07
-4.1574e-08
-7.01507e-07
9.5603e-07
7.94039e-07
1.02152e-07
-9.8513e-07
-3.7011e-07
-5.7642e-05
5.73179e-05
-5.40497e-05
2.18774e-07
5.42249e-05
-3.53356e-07
2.13796e-07
1.29939e-08
-5.81519e-05
-2.48313e-07
5.81203e-05
3.74684e-07
-5.90698e-05
-1.06274e-07
1.79836e-09
5.8984e-05
2.03212e-07
9.78985e-09
-2.46733e-07
3.63336e-07
-9.80244e-08
1.23032e-09
1.86474e-07
1.44197e-08
-5.51833e-05
5.51393e-05
-5.61849e-05
1.87116e-09
5.60912e-05
1.1281e-08
1.31216e-09
9.51062e-12
-5.94025e-05
-7.61126e-08
5.93253e-05
1.55088e-07
-5.94023e-05
-7.61149e-08
-1.78767e-09
5.93251e-05
1.55089e-07
5.20864e-12
-6.70334e-08
1.3718e-07
-6.7035e-08
-1.22623e-09
1.37181e-07
6.11494e-12
-5.63332e-05
5.6259e-05
-5.6333e-05
-1.86635e-09
5.62588e-05
4.95939e-12
-1.3087e-09
-1.30193e-08
-5.90693e-05
-1.06252e-07
5.89837e-05
2.03174e-07
-5.81514e-05
-2.48223e-07
-1.07783e-07
5.81197e-05
3.74623e-07
-9.79487e-09
-9.79991e-08
1.86438e-07
-2.46639e-07
-1.02207e-07
3.63267e-07
-1.44254e-08
-5.61843e-05
5.60906e-05
-5.51827e-05
-2.18724e-07
5.51388e-05
-1.1284e-08
-2.1375e-07
5.80915e-08
-5.80108e-05
7.64265e-07
5.80324e-05
-9.51729e-07
-5.967e-05
-6.94335e-07
5.94621e-05
9.60285e-07
4.16554e-08
7.94177e-07
-9.854e-07
-7.01709e-07
9.56362e-07
3.70262e-07
-5.40494e-05
5.42247e-05
-5.76419e-05
5.73179e-05
3.53501e-07
-8.23058e-08
-5.92634e-05
-6.73775e-07
5.90656e-05
9.53967e-07
-5.80293e-05
6.97953e-07
1.12546e-07
5.80044e-05
-8.6793e-07
-7.05429e-08
-6.79362e-07
9.48816e-07
7.24955e-07
1.09732e-07
-9.01824e-07
-3.88497e-07
-5.70153e-05
5.673e-05
-5.43551e-05
2.2059e-07
5.44439e-05
-3.76735e-07
2.18051e-07
1.67904e-08
-5.80804e-05
-2.51097e-07
5.8031e-05
3.963e-07
-5.88938e-05
-1.207e-07
2.76266e-09
5.87962e-05
2.32413e-07
1.56016e-08
-2.46097e-07
3.80139e-07
-1.12152e-07
2.4474e-09
2.15474e-07
1.98876e-08
-5.50942e-05
5.50438e-05
-5.59937e-05
3.12566e-09
5.58897e-05
1.70666e-08
2.45758e-09
-1.11698e-10
-5.92409e-05
-9.34551e-08
5.91473e-05
1.89899e-07
-5.92407e-05
-9.34223e-08
-3.16756e-09
5.91472e-05
1.89935e-07
4.11037e-11
-8.38586e-08
1.70636e-07
-8.38667e-08
-2.30987e-09
1.70631e-07
-7.16124e-12
-5.61776e-05
5.60873e-05
-5.61773e-05
-3.12271e-09
5.6087e-05
1.03369e-11
-2.44296e-09
-1.76526e-08
-5.88933e-05
-1.20578e-07
5.87959e-05
2.32476e-07
-5.808e-05
-2.51135e-07
-1.12873e-07
5.80302e-05
3.96117e-07
-1.52153e-08
-1.12171e-07
2.15397e-07
-2.4597e-07
-1.09667e-07
3.80123e-07
-1.98104e-08
-5.59931e-05
5.58892e-05
-5.50937e-05
-2.20543e-07
5.50433e-05
-1.70878e-08
-2.17991e-07
8.23141e-08
-5.8029e-05
6.98023e-07
5.8004e-05
-8.68211e-07
-5.92632e-05
-6.73988e-07
5.90652e-05
9.54279e-07
7.06631e-08
7.2508e-07
-9.02058e-07
-6.79568e-07
9.49153e-07
3.88643e-07
-5.43549e-05
5.44437e-05
-5.70152e-05
5.67298e-05
3.76893e-07
-9.88268e-08
-5.88726e-05
-6.59369e-07
5.8677e-05
9.53843e-07
-5.79589e-05
6.38175e-07
1.14108e-07
5.78948e-05
-7.86989e-07
-9.03851e-08
-6.62036e-07
9.45341e-07
6.62393e-07
1.12682e-07
-8.19966e-07
-3.98891e-07
-5.64586e-05
5.61981e-05
-5.44978e-05
2.19118e-07
5.4518e-05
-3.90557e-07
2.17959e-07
1.98199e-08
-5.79715e-05
-2.59802e-07
5.79004e-05
4.25162e-07
-5.86928e-05
-1.36e-07
3.908e-09
5.85809e-05
2.63822e-07
1.88009e-08
-2.51994e-07
4.05351e-07
-1.26805e-07
3.72102e-09
2.45206e-07
2.44043e-08
-5.49878e-05
5.49227e-05
-5.57812e-05
4.4196e-09
5.56652e-05
2.19733e-08
3.67588e-09
-1.11401e-10
-5.90463e-05
-1.11775e-07
5.89352e-05
2.2696e-07
-5.90461e-05
-1.11715e-07
-4.39151e-09
5.89351e-05
2.27003e-07
9.81651e-11
-1.01391e-07
2.0601e-07
-1.01426e-07
-3.34155e-09
2.05984e-07
7.13859e-11
-5.59895e-05
5.58821e-05
-5.59893e-05
-4.16346e-09
5.58819e-05
-5.37353e-12
-3.74606e-09
-2.02572e-08
-5.86925e-05
-1.36022e-07
5.85805e-05
2.63791e-07
-5.79711e-05
-2.59786e-07
-1.14254e-07
5.78998e-05
4.25052e-07
-1.82068e-08
-1.26812e-07
2.45141e-07
-2.51844e-07
-1.12553e-07
4.05359e-07
-2.43089e-08
-5.57806e-05
5.56648e-05
-5.49873e-05
-2.19053e-07
5.49223e-05
-2.20187e-08
-2.17887e-07
9.8897e-08
-5.79586e-05
6.38256e-07
5.78944e-05
-7.87222e-07
-5.88723e-05
-6.59574e-07
5.86766e-05
9.54165e-07
9.05267e-08
6.62509e-07
-8.20176e-07
-6.62231e-07
9.45673e-07
3.9905e-07
-5.44976e-05
5.45177e-05
-5.64583e-05
5.61978e-05
3.90722e-07
-1.10012e-07
-5.84828e-05
-6.51635e-07
5.82827e-05
9.61714e-07
-5.78126e-05
5.86441e-07
1.13724e-07
5.77126e-05
-7.1024e-07
-1.03947e-07
-6.51361e-07
9.49525e-07
6.07735e-07
1.13092e-07
-7.42541e-07
-4.03703e-07
-5.59447e-05
5.56968e-05
-5.45122e-05
2.15809e-07
5.44791e-05
-3.9799e-07
2.15536e-07
2.23237e-08
-5.7818e-05
-2.73098e-07
5.77225e-05
4.60056e-07
-5.8462e-05
-1.53322e-07
5.14237e-09
5.83332e-05
2.99278e-07
2.12764e-08
-2.62984e-07
4.37178e-07
-1.43026e-07
5.00091e-09
2.7824e-07
2.80162e-08
-5.48493e-05
5.4764e-05
-5.55435e-05
5.40404e-09
5.54128e-05
2.59805e-08
4.63746e-09
-5.02645e-11
-5.88158e-05
-1.3163e-07
5.86852e-05
2.67444e-07
-5.88156e-05
-1.31606e-07
-5.38236e-09
5.86851e-05
2.67467e-07
1.76183e-10
-1.20276e-07
2.44457e-07
-1.20351e-07
-4.38394e-09
2.44411e-07
2.73619e-11
-5.57666e-05
5.56403e-05
-5.57664e-05
-5.29841e-09
5.56401e-05
-7.60196e-11
-4.93924e-09
-2.24669e-08
-5.84617e-05
-1.53327e-07
5.83329e-05
2.99238e-07
-5.78176e-05
-2.73029e-07
-1.13786e-07
5.7722e-05
4.59974e-07
-2.08675e-08
-1.42927e-07
2.78248e-07
-2.62829e-07
-1.13018e-07
4.37167e-07
-2.79899e-08
-5.5543e-05
5.54123e-05
-5.48489e-05
-2.15745e-07
5.47636e-05
-2.60854e-08
-2.15476e-07
1.10107e-07
-5.78123e-05
5.86531e-07
5.77123e-05
-7.10457e-07
-5.84824e-05
-6.51819e-07
5.82823e-05
9.62023e-07
1.04078e-07
6.07843e-07
-7.42743e-07
-6.51549e-07
9.49847e-07
4.03862e-07
-5.4512e-05
5.44789e-05
-5.59444e-05
5.56965e-05
3.9815e-07
-1.17465e-07
-5.80814e-05
-6.50096e-07
5.78714e-05
9.77495e-07
-5.75976e-05
5.36081e-07
1.12348e-07
5.74668e-05
-6.35067e-07
-1.12992e-07
-6.46795e-07
9.61129e-07
5.56865e-07
1.12007e-07
-6.66869e-07
-4.05235e-07
-5.54509e-05
5.52061e-05
-5.44232e-05
2.11795e-07
5.43423e-05
-4.00952e-07
2.11798e-07
2.43426e-08
-5.7615e-05
-2.90309e-07
5.74931e-05
5.00258e-07
-5.81963e-05
-1.72823e-07
6.29196e-09
5.80478e-05
3.39342e-07
2.31918e-08
-2.78184e-07
4.74445e-07
-1.61155e-07
5.7418e-09
3.15524e-07
3.08943e-08
-5.46684e-05
5.45589e-05
-5.52751e-05
6.36297e-09
5.51268e-05
2.92446e-08
5.80059e-09
7.9002e-12
-5.85455e-05
-1.53355e-07
5.83934e-05
3.11756e-07
-5.85454e-05
-1.53358e-07
-6.28823e-09
5.83933e-05
3.11762e-07
1.01853e-11
-1.40844e-07
2.86258e-07
-1.40848e-07
-5.70661e-09
2.86262e-07
7.99332e-12
-5.55053e-05
5.53583e-05
-5.55051e-05
-6.35725e-09
5.53581e-05
5.57987e-12
-5.80939e-09
-2.43418e-08
-5.8196e-05
-1.72807e-07
5.80475e-05
3.39319e-07
-5.76146e-05
-2.90224e-07
-1.12374e-07
5.74926e-05
5.00186e-07
-2.31784e-08
-1.61137e-07
3.155e-07
-2.78099e-07
-1.12036e-07
4.74375e-07
-3.08902e-08
-5.52746e-05
5.51264e-05
-5.4668e-05
-2.11723e-07
5.45586e-05
-2.92435e-08
-2.11729e-07
1.17568e-07
-5.75973e-05
5.36169e-07
5.74665e-05
-6.35276e-07
-5.80809e-05
-6.50276e-07
5.7871e-05
9.77792e-07
1.13092e-07
5.56953e-07
-6.67079e-07
-6.46979e-07
9.61432e-07
4.05396e-07
-5.4423e-05
5.4342e-05
-5.54506e-05
5.52057e-05
4.01111e-07
-1.22258e-07
-5.76578e-05
-6.53292e-07
5.74331e-05
1.0002e-06
-5.73215e-05
4.88982e-07
1.10491e-07
5.71607e-05
-5.60935e-07
-1.1899e-07
-6.47879e-07
9.80536e-07
5.09663e-07
1.10391e-07
-5.93738e-07
-4.03816e-07
-5.49592e-05
5.47097e-05
-5.42434e-05
2.07264e-07
5.41213e-05
-4.00977e-07
2.07577e-07
2.59448e-08
-5.73586e-05
-3.10474e-07
5.72084e-05
5.45179e-07
-5.789e-05
-1.9467e-07
7.26258e-09
5.77189e-05
3.8438e-07
2.49439e-08
-2.96787e-07
5.16726e-07
-1.8166e-07
6.72195e-09
3.57749e-07
3.31582e-08
-5.44379e-05
5.43016e-05
-5.49702e-05
7.30898e-09
5.48014e-05
3.17923e-08
6.77967e-09
9.02403e-12
-5.82312e-05
-1.77162e-07
5.80553e-05
3.60306e-07
-5.82311e-05
-1.77166e-07
-7.25483e-09
5.80552e-05
3.60313e-07
8.38861e-12
-1.6343e-07
3.32305e-07
-1.63433e-07
-6.71569e-09
3.32312e-07
8.72574e-12
-5.52016e-05
5.50317e-05
-5.52014e-05
-7.3009e-09
5.50316e-05
8.44587e-12
-6.77365e-09
-2.59402e-08
-5.78897e-05
-1.94656e-07
5.77187e-05
3.84358e-07
-5.73582e-05
-3.10386e-07
-1.10512e-07
5.7208e-05
5.45102e-07
-2.49414e-08
-1.81645e-07
3.57727e-07
-2.96701e-07
-1.10415e-07
5.16652e-07
-3.31489e-08
-5.49697e-05
5.48009e-05
-5.44376e-05
-2.07188e-07
5.43012e-05
-3.17868e-08
-2.07503e-07
1.22363e-07
-5.73211e-05
4.89069e-07
5.71603e-05
-5.61142e-07
-5.76573e-05
-6.53465e-07
5.74326e-05
1.00048e-06
1.19092e-07
5.09749e-07
-5.93943e-07
-6.48058e-07
9.80828e-07
4.03976e-07
-5.42432e-05
5.41211e-05
-5.49588e-05
5.47093e-05
4.01136e-07
-1.25113e-07
-5.72026e-05
-6.60894e-07
5.69587e-05
1.02992e-06
-5.6985e-05
4.41155e-07
1.08426e-07
5.67916e-05
-4.81282e-07
-1.22666e-07
-6.52938e-07
1.00609e-06
4.62635e-07
1.08399e-07
-5.17955e-07
-4.00486e-07
-5.44552e-05
5.41947e-05
-5.39826e-05
2.0253e-07
5.38208e-05
-3.98389e-07
2.02912e-07
2.72624e-08
-5.7045e-05
-3.33723e-07
5.68646e-05
5.9533e-07
-5.75373e-05
-2.18827e-07
8.15955e-09
5.73407e-05
4.34525e-07
2.63724e-08
-3.18132e-07
5.63589e-07
-2.04408e-07
7.64489e-09
4.04744e-07
3.44278e-08
-5.41526e-05
5.3987e-05
-5.4623e-05
8.08214e-09
5.44306e-05
3.37679e-08
7.67724e-09
5.91488e-12
-5.78685e-05
-2.03198e-07
5.76664e-05
4.13442e-07
-5.78684e-05
-2.03219e-07
-8.15042e-09
5.76663e-05
4.13452e-07
8.79558e-12
-1.88026e-07
3.82478e-07
-1.88032e-07
-7.63513e-09
3.82486e-07
-3.94662e-11
-5.48514e-05
5.46563e-05
-5.48512e-05
-8.27075e-09
5.46562e-05
3.60709e-12
-7.66918e-09
-2.72369e-08
-5.75371e-05
-2.18841e-07
5.73405e-05
4.34507e-07
-5.70446e-05
-3.33595e-07
-1.08447e-07
5.68642e-05
5.9525e-07
-2.63629e-08
-2.04397e-07
4.04724e-07
-3.18041e-07
-1.08418e-07
5.6351e-07
-3.47858e-08
-5.46226e-05
5.44303e-05
-5.41523e-05
-2.02557e-07
5.39865e-05
-3.37365e-08
-2.02841e-07
1.25215e-07
-5.69846e-05
4.41251e-07
5.67912e-05
-4.8149e-07
-5.72021e-05
-6.61057e-07
5.69582e-05
1.03019e-06
1.22769e-07
4.62723e-07
-5.18165e-07
-6.53109e-07
1.00637e-06
4.00617e-07
-5.39824e-05
5.38205e-05
-5.44547e-05
5.41943e-05
3.98542e-07
-1.26596e-07
-5.67072e-05
-6.73108e-07
5.64403e-05
1.06669e-06
-5.65834e-05
3.91954e-07
1.06327e-07
5.6358e-05
-3.99547e-07
-1.24714e-07
-6.62541e-07
1.03873e-06
4.14538e-07
1.06296e-07
-4.37339e-07
-3.95961e-07
-5.39265e-05
5.36493e-05
-5.36426e-05
1.97756e-07
5.34408e-05
-3.94291e-07
1.98407e-07
2.83602e-08
-5.66703e-05
-3.6033e-07
5.64578e-05
6.50821e-07
-5.71323e-05
-2.45444e-07
8.98489e-09
5.6907e-05
4.90108e-07
2.75028e-08
-3.42694e-07
6.15741e-07
-2.29504e-07
8.49503e-09
4.56946e-07
3.43151e-08
-5.38077e-05
5.36109e-05
-5.42272e-05
8.65457e-09
5.40074e-05
3.4933e-08
8.75273e-09
-5.69326e-12
-5.74524e-05
-2.31722e-07
5.72214e-05
4.717e-07
-5.74523e-05
-2.31786e-07
-8.98108e-09
5.72214e-05
4.71717e-07
1.97906e-11
-2.15006e-07
4.37493e-07
-2.14972e-07
-8.48787e-09
4.375e-07
-1.76669e-10
-5.44499e-05
5.4227e-05
-5.44497e-05
-9.34186e-09
5.4227e-05
1.40489e-10
-8.26475e-09
-2.82641e-08
-5.7132e-05
-2.45559e-07
5.69068e-05
4.90097e-07
-5.667e-05
-3.60073e-07
-1.06353e-07
5.64574e-05
6.50733e-07
-2.75583e-08
-2.29416e-07
4.56926e-07
-3.4272e-07
-1.06303e-07
6.15671e-07
-3.57094e-08
-5.42266e-05
5.40074e-05
-5.38078e-05
-1.98117e-07
5.36101e-05
-3.40193e-08
-1.98042e-07
1.26685e-07
-5.6583e-05
3.92091e-07
5.63576e-05
-3.99749e-07
-5.67068e-05
-6.7325e-07
5.64397e-05
1.06695e-06
1.24826e-07
4.14583e-07
-4.37532e-07
-6.62722e-07
1.03901e-06
3.95994e-07
-5.36425e-05
5.34405e-05
-5.39261e-05
5.36488e-05
3.94529e-07
-1.26918e-07
-5.6164e-05
-6.88735e-07
5.587e-05
1.10965e-06
-5.61176e-05
3.45657e-07
1.04144e-07
5.58575e-05
-3.16563e-07
-1.25576e-07
-6.76308e-07
1.07811e-06
3.66342e-07
1.04198e-07
-3.5573e-07
-3.90134e-07
-5.33621e-05
5.30635e-05
-5.32242e-05
1.92972e-07
5.29868e-05
-3.89034e-07
1.93933e-07
2.91953e-08
-5.62305e-05
-3.89311e-07
5.59834e-05
7.11454e-07
-5.66688e-05
-2.74647e-07
9.7299e-09
5.6412e-05
5.50872e-07
2.84054e-08
-3.7016e-07
6.73184e-07
-2.57218e-07
9.28397e-09
5.14546e-07
3.41836e-08
-5.33989e-05
5.31684e-05
-5.37762e-05
9.26724e-09
5.35265e-05
3.57088e-08
9.70891e-09
-1.2542e-11
-5.69776e-05
-2.62597e-07
5.67151e-05
5.34777e-07
-5.69775e-05
-2.62683e-07
-9.7381e-09
5.67151e-05
5.34799e-07
2.92283e-11
-2.44432e-07
4.97552e-07
-2.44381e-07
-9.26237e-09
4.97559e-07
-2.42682e-10
-5.39921e-05
5.3739e-05
-5.39918e-05
-1.02138e-08
5.3739e-05
2.44688e-10
-8.86073e-09
-2.90563e-08
-5.66686e-05
-2.74847e-07
5.64119e-05
5.50867e-07
-5.62302e-05
-3.8897e-07
-1.04175e-07
5.5983e-05
7.1136e-07
-2.85093e-08
-2.5704e-07
5.14524e-07
-3.70289e-07
-1.04193e-07
6.73119e-07
-3.63525e-08
-5.37754e-05
5.35267e-05
-5.33992e-05
-1.9357e-07
5.31675e-05
-3.38908e-08
-1.93285e-07
1.26999e-07
-5.61173e-05
3.45808e-07
5.58571e-05
-3.16757e-07
-5.61636e-05
-6.88864e-07
5.58695e-05
1.1099e-06
1.25696e-07
3.66345e-07
-3.55908e-07
-6.76494e-07
1.07838e-06
3.901e-07
-5.32242e-05
5.29863e-05
-5.33617e-05
5.30629e-05
3.89345e-07
-1.26489e-07
-5.55651e-05
-7.08474e-07
5.52405e-05
1.15957e-06
-5.55809e-05
3.0038e-07
1.02019e-07
5.52837e-05
-2.31751e-07
-1.25494e-07
-6.93895e-07
1.12438e-06
3.22108e-07
1.02068e-07
-2.73039e-07
-3.83908e-07
-5.27526e-05
5.24281e-05
-5.27362e-05
1.88605e-07
5.2464e-05
-3.83063e-07
1.89641e-07
2.98303e-08
-5.57204e-05
-4.21183e-07
5.54362e-05
7.77564e-07
-5.61412e-05
-3.06748e-07
1.04109e-08
5.58499e-05
6.17404e-07
2.91025e-08
-4.00291e-07
7.36182e-07
-2.87707e-07
1.00043e-08
5.77682e-07
3.40593e-08
-5.29215e-05
5.26549e-05
-5.32645e-05
9.87158e-09
5.2982e-05
3.62554e-08
1.05041e-08
-1.64443e-11
-5.64387e-05
-2.96154e-07
5.61419e-05
6.03362e-07
-5.64386e-05
-2.96239e-07
-1.04297e-08
5.61418e-05
6.03383e-07
3.49138e-11
-2.76383e-07
5.62823e-07
-2.76324e-07
-9.96836e-09
5.6283e-07
-2.93846e-10
-5.34728e-05
5.31868e-05
-5.34725e-05
-1.09525e-08
5.31869e-05
3.02122e-10
-9.46771e-09
-2.96642e-08
-5.61409e-05
-3.07014e-07
5.58498e-05
6.17405e-07
-5.57202e-05
-4.20784e-07
-1.02053e-07
5.54359e-05
7.77467e-07
-2.92369e-08
-2.87458e-07
5.77657e-07
-4.0049e-07
-1.02054e-07
7.36121e-07
-3.68048e-08
-5.32635e-05
5.29824e-05
-5.2922e-05
-1.89374e-07
5.26538e-05
-3.37716e-08
-1.88789e-07
1.26565e-07
-5.55805e-05
3.0055e-07
5.52833e-05
-2.3194e-07
-5.55646e-05
-7.08593e-07
5.52399e-05
1.15982e-06
1.25621e-07
3.22082e-07
-2.73207e-07
-6.94084e-07
1.12464e-06
3.83827e-07
-5.27362e-05
5.24635e-05
-5.27523e-05
5.24275e-05
3.83423e-07
-1.25619e-07
-5.49037e-05
-7.31717e-07
5.45456e-05
1.21543e-06
-5.49702e-05
2.52677e-07
1.00104e-07
5.46358e-05
-1.44028e-07
-1.24815e-07
-7.15151e-07
1.17675e-06
2.76074e-07
1.00057e-07
-1.87438e-07
-3.77272e-07
-5.20896e-05
5.17351e-05
-5.21779e-05
1.84505e-07
5.18688e-05
-3.76653e-07
1.85611e-07
3.02933e-08
-5.51358e-05
-4.55695e-07
5.48127e-05
8.48533e-07
-5.55435e-05
-3.41534e-07
1.10266e-08
5.52148e-05
6.89485e-07
2.96215e-08
-4.33151e-07
8.04073e-07
-3.20883e-07
1.06562e-08
6.46323e-07
3.39138e-08
-5.23707e-05
5.20656e-05
-5.26865e-05
1.04405e-08
5.23685e-05
3.66184e-08
1.11823e-08
-1.84874e-11
-5.583e-05
-3.32289e-07
5.54961e-05
6.77274e-07
-5.58299e-05
-3.32371e-07
-1.10541e-08
5.5496e-05
6.77294e-07
3.83202e-11
-3.109e-07
6.33389e-07
-3.10832e-07
-1.06096e-08
6.33393e-07
-3.21779e-10
-5.28868e-05
5.25652e-05
-5.28865e-05
-1.15916e-08
5.25654e-05
3.25614e-10
-1.00507e-08
-3.01092e-08
-5.55432e-05
-3.41851e-07
5.52146e-05
6.89489e-07
-5.51355e-05
-4.55254e-07
-1.0014e-07
5.48124e-05
8.48433e-07
-2.97749e-08
-3.20579e-07
6.46295e-07
-4.33397e-07
-1.00036e-07
8.04014e-07
-3.70834e-08
-5.26854e-05
5.2369e-05
-5.23714e-05
-1.85403e-07
5.20644e-05
-3.36324e-08
-1.84613e-07
1.25689e-07
-5.49699e-05
2.52859e-07
5.46354e-05
-1.44208e-07
-5.49032e-05
-7.31829e-07
5.4545e-05
1.21568e-06
1.24944e-07
2.76031e-07
-1.87598e-07
-7.1534e-07
1.17702e-06
3.77157e-07
-5.21779e-05
5.18682e-05
-5.20892e-05
5.17345e-05
3.77046e-07
-1.24528e-07
-5.41742e-05
-7.57918e-07
5.37797e-05
1.27691e-06
-5.42861e-05
2.02316e-07
9.85071e-08
5.3918e-05
-5.71848e-08
-1.23824e-07
-7.39656e-07
1.23485e-06
2.27566e-07
9.83088e-08
-1.00005e-07
-3.70247e-07
-5.13654e-05
5.09777e-05
-5.15447e-05
1.8077e-07
5.1196e-05
-3.69896e-07
1.81724e-07
3.058e-08
-5.44728e-05
-4.92436e-07
5.41089e-05
9.24276e-07
-5.48698e-05
-3.79244e-07
1.15916e-08
5.45009e-05
7.67168e-07
2.99948e-08
-4.68516e-07
8.76752e-07
-3.56789e-07
1.12416e-08
7.20478e-07
3.42389e-08
-5.17421e-05
5.13962e-05
-5.20366e-05
1.11434e-08
5.16805e-05
3.66617e-08
1.17259e-08
-7.2378e-12
-5.5146e-05
-3.70938e-07
5.47722e-05
7.56357e-07
-5.5146e-05
-3.7099e-07
-1.16073e-08
5.47722e-05
7.56377e-07
4.02436e-11
-3.47937e-07
7.09184e-07
-3.47871e-07
-1.11906e-08
7.09188e-07
-2.09144e-10
-5.22287e-05
5.18691e-05
-5.22284e-05
-1.18998e-08
5.18691e-05
3.26554e-10
-1.06241e-08
-3.04505e-08
-5.48696e-05
-3.79468e-07
5.45008e-05
7.67162e-07
-5.44726e-05
-4.92106e-07
-9.85286e-08
5.41086e-05
9.2418e-07
-3.01575e-08
-3.5646e-07
7.20446e-07
-4.68775e-07
-9.8287e-08
8.76695e-07
-3.65083e-08
-5.20356e-05
5.16807e-05
-5.17427e-05
-1.81372e-07
5.13955e-05
-3.361e-08
-1.80687e-07
1.24603e-07
-5.42858e-05
2.02457e-07
5.39175e-05
-5.73442e-08
-5.41737e-05
-7.5804e-07
5.37792e-05
1.27715e-06
1.23954e-07
2.27511e-07
-1.00156e-07
-7.39845e-07
1.23511e-06
3.70212e-07
-5.15447e-05
5.11956e-05
-5.1365e-05
5.09772e-05
3.70299e-07
-1.232e-07
-5.33709e-05
-7.86146e-07
5.2937e-05
1.34333e-06
-5.35422e-05
1.48498e-07
9.71093e-08
5.31378e-05
3.55617e-08
-1.22639e-07
-7.66414e-07
1.29784e-06
1.75845e-07
9.68342e-08
-1.95323e-08
-3.62847e-07
-5.05741e-05
5.01508e-05
-5.08315e-05
1.77187e-07
5.04399e-05
-3.62777e-07
1.77585e-07
3.07756e-08
-5.37275e-05
-5.30674e-07
5.33201e-05
1.00435e-06
-5.41148e-05
-4.19479e-07
1.21016e-08
5.3703e-05
8.49975e-07
3.02993e-08
-5.05781e-07
9.53725e-07
-3.95159e-07
1.17534e-08
7.99813e-07
3.48044e-08
-5.10324e-05
5.06442e-05
-5.13091e-05
1.18806e-08
5.09125e-05
3.5593e-08
1.18571e-08
7.31483e-12
-5.43815e-05
-4.11928e-07
5.39652e-05
8.40283e-07
-5.43814e-05
-4.11944e-07
-1.20947e-08
5.39652e-05
8.40294e-07
2.16564e-11
-3.87229e-07
7.89666e-07
-3.87208e-07
-1.17203e-08
7.89674e-07
-4.63005e-11
-5.14936e-05
5.10936e-05
-5.14935e-05
-1.20709e-08
5.10935e-05
1.31706e-10
-1.14062e-08
-3.07322e-08
-5.41146e-05
-4.19536e-07
5.37028e-05
8.49964e-07
-5.37272e-05
-5.30523e-07
-9.71164e-08
5.33199e-05
1.00426e-06
-3.03482e-08
-3.95014e-07
7.99789e-07
-5.05841e-07
-9.68022e-08
9.53648e-07
-3.54873e-08
-5.13085e-05
5.09124e-05
-5.10325e-05
-1.77292e-07
5.06438e-05
-3.42024e-08
-1.77092e-07
1.23293e-07
-5.35418e-05
1.4858e-07
5.31374e-05
3.53241e-08
-5.33704e-05
-7.86284e-07
5.29364e-05
1.34357e-06
1.22728e-07
1.75848e-07
-1.95801e-08
-7.66577e-07
1.29808e-06
3.62943e-07
-5.08314e-05
5.04397e-05
-5.05736e-05
5.01503e-05
3.6302e-07
-1.20857e-07
-5.24871e-05
-8.17049e-07
5.20101e-05
1.41491e-06
-5.27076e-05
9.32837e-08
9.48494e-08
5.22488e-05
1.49783e-07
-1.20856e-07
-7.9569e-07
1.36641e-06
1.21334e-07
9.50454e-08
9.29909e-08
-3.55322e-07
-4.97106e-05
4.92489e-05
-5.0032e-05
1.73518e-07
4.95965e-05
-3.55543e-07
1.7371e-07
3.09869e-08
-5.2894e-05
-5.7099e-07
5.24402e-05
1.08864e-06
-5.32731e-05
-4.62028e-07
1.2551e-08
5.2816e-05
9.37564e-07
3.05715e-08
-5.44789e-07
1.03538e-06
-4.36145e-07
1.22154e-08
8.84387e-07
3.48704e-08
-5.02382e-05
4.98059e-05
-5.04991e-05
1.2391e-08
5.00595e-05
3.48489e-08
1.21213e-08
1.17432e-11
-5.35311e-05
-4.55207e-07
5.30698e-05
9.2906e-07
-5.3531e-05
-4.55213e-07
-1.25368e-08
5.30697e-05
9.29072e-07
1.38628e-11
-4.29046e-07
8.75413e-07
-4.29046e-07
-1.2197e-08
8.75423e-07
2.15107e-12
-5.06766e-05
5.02338e-05
-5.06766e-05
-1.24041e-08
5.02337e-05
3.10395e-11
-1.20239e-08
-3.09705e-08
-5.32729e-05
-4.6203e-07
5.28159e-05
9.37551e-07
-5.28938e-05
-5.70896e-07
-9.48527e-08
5.244e-05
1.08856e-06
-3.05711e-08
-4.36109e-07
8.84372e-07
-5.44734e-07
-9.5046e-08
1.0353e-06
-3.49713e-08
-5.04988e-05
5.00593e-05
-5.02381e-05
-1.73458e-07
4.98057e-05
-3.45366e-08
-1.73541e-07
1.20956e-07
-5.27072e-05
9.33448e-08
5.22485e-05
1.49618e-07
-5.24866e-05
-8.17186e-07
5.20096e-05
1.41514e-06
1.20957e-07
1.21384e-07
9.28133e-08
-7.95834e-07
1.36665e-06
3.55456e-07
-5.00318e-05
4.95963e-05
-4.97101e-05
4.92484e-05
3.55702e-07
-1.18337e-07
-5.15166e-05
-8.50684e-07
5.09947e-05
1.49098e-06
-5.17706e-05
3.98947e-08
9.26156e-08
5.12627e-05
2.56993e-07
-1.18421e-07
-8.27579e-07
1.43948e-06
6.70119e-08
9.2797e-08
2.0002e-07
-3.47756e-07
-4.87694e-05
4.82664e-05
-4.91454e-05
1.69934e-07
4.86676e-05
-3.48057e-07
1.70012e-07
3.11289e-08
-5.19674e-05
-6.13498e-07
5.14658e-05
1.17665e-06
-5.23401e-05
-5.06707e-07
1.29401e-08
5.18354e-05
1.02962e-06
3.07596e-08
-5.85855e-07
1.1207e-06
-4.79312e-07
1.26282e-08
9.73298e-07
3.46665e-08
-4.93556e-05
4.88773e-05
-4.96022e-05
1.27808e-08
4.91174e-05
3.44723e-08
1.24776e-08
1.2331e-11
-5.25899e-05