/*--------------------------------*- C++ -*----------------------------------*\
  =========                 |
  \\      /  F ield         | OpenFOAM: The Open Source CFD Toolbox
   \\    /   O peration     | Website:  https://openfoam.org
    \\  /    A nd           | Version:  9
     \\/     M anipulation  |
\*---------------------------------------------------------------------------*/
FoamFile
{
    format      ascii;
    class       surfaceScalarField;
    location    "0.8";
    object      phi;
}
// * * * * * * * * * * * * * * * * * * * * * * * * * * * * * * * * * * * * * //

dimensions      [0 3 -1 0 0 0 0];

internalField   nonuniform List<scalar> 
104044
(
-1.21164e-11
-1.08268e-05
-1.02611e-09
1.08245e-05
3.30703e-09
-1.08268e-05
-1.01583e-09
-2.9584e-13
1.08245e-05
3.29373e-09
1.31043e-11
-1.58067e-09
4.08197e-09
-1.59588e-09
8.02341e-13
4.09347e-09
-8.45604e-12
-3.78034e-06
3.77932e-06
-3.78036e-06
-5.77981e-13
3.77934e-06
1.24731e-11
9.39695e-13
1.23711e-13
-1.08268e-05
-1.01379e-09
1.08245e-05
3.29151e-09
-1.08268e-05
-1.01391e-09
3.16294e-14
1.08245e-05
3.29169e-09
-8.16881e-14
-1.59799e-09
4.09895e-09
-1.59864e-09
-3.45435e-14
4.10074e-09
2.51031e-14
-3.78035e-06
3.77933e-06
-3.78035e-06
3.48876e-14
3.77933e-06
-2.15228e-14
-1.77837e-14
1.23198e-14
-1.08268e-05
-1.01413e-09
1.08245e-05
3.29219e-09
-1.08268e-05
-1.01425e-09
-9.47311e-15
1.08245e-05
3.29254e-09
1.95189e-14
-1.59893e-09
4.10156e-09
-1.5991e-09
7.25053e-14
4.10199e-09
2.03159e-14
-3.78035e-06
3.77933e-06
-3.78035e-06
6.52621e-15
3.77933e-06
2.28651e-14
6.36998e-14
-1.01916e-13
-1.08268e-05
-1.01425e-09
1.08245e-05
3.29273e-09
-1.08268e-05
-1.01432e-09
3.1653e-13
1.08245e-05
3.29312e-09
1.112e-13
-1.59915e-09
4.10201e-09
-1.59878e-09
-7.79138e-13
4.10091e-09
5.26489e-15
-3.78035e-06
3.77933e-06
-3.78035e-06
6.04304e-13
3.77934e-06
5.51427e-14
-9.14781e-13
1.21298e-11
-1.08268e-05
-1.0165e-09
1.08245e-05
3.29577e-09
-1.08268e-05
-1.02685e-09
1.08245e-05
3.30931e-09
-1.31014e-11
-1.59687e-09
4.09594e-09
-1.58176e-09
4.08472e-09
8.47372e-12
-3.78036e-06
3.77934e-06
-3.78034e-06
3.77932e-06
-1.24665e-11
-2.44812e-12
-1.08224e-05
-7.17373e-10
1.08203e-05
2.82951e-09
-1.08224e-05
-7.18547e-10
-5.69632e-13
1.08203e-05
2.82933e-09
-3.83149e-12
-7.78615e-10
2.85781e-09
-7.80184e-10
2.96383e-13
2.85655e-09
-1.38988e-12
-3.77854e-06
3.77783e-06
-3.77855e-06
-6.33351e-13
3.77783e-06
-2.89336e-12
-4.90305e-14
-1.41239e-13
-1.08224e-05
-7.18348e-10
1.08203e-05
2.82997e-09
-1.08224e-05
-7.18686e-10
-6.18417e-14
1.08203e-05
2.83049e-09
3.51636e-13
-7.81449e-10
2.85822e-09
-7.82512e-10
6.10235e-14
2.85954e-09
-1.66405e-13
-3.77855e-06
3.77783e-06
-3.77855e-06
-5.07607e-14
3.77783e-06
2.22972e-13
5.15522e-14
1.82388e-14
-1.08224e-05
-7.18863e-10
1.08203e-05
2.83087e-09
-1.08224e-05
-7.18929e-10
9.81095e-14
1.08203e-05
2.83109e-09
1.40181e-14
-7.82953e-10
2.86026e-09
-7.8304e-10
-3.64669e-14
2.86054e-09
1.86672e-14
-3.77855e-06
3.77783e-06
-3.77855e-06
8.57504e-14
3.77783e-06
1.72007e-14
-2.08633e-14
1.62817e-13
-1.08224e-05
-7.18869e-10
1.08203e-05
2.83113e-09
-1.08224e-05
-7.18637e-10
5.87637e-13
1.08203e-05
2.83097e-09
-3.22006e-13
-7.8276e-10
2.86036e-09
-7.8184e-10
-2.72819e-13
2.85951e-09
1.92633e-13
-3.77855e-06
3.77783e-06
-3.77855e-06
6.61354e-13
3.77783e-06
-1.78484e-13
7.67652e-14
2.45784e-12
-1.08224e-05
-7.18915e-10
1.08203e-05
2.83059e-09
-1.08224e-05
-7.17766e-10
1.08203e-05
2.83092e-09
3.84241e-12
-7.80678e-10
2.85816e-09
-7.79142e-10
2.85962e-09
1.40378e-12
-3.77855e-06
3.77783e-06
-3.77854e-06
3.77783e-06
2.91047e-12
-2.12608e-12
-1.0818e-05
-8.6136e-10
1.08153e-05
3.53435e-09
-1.0818e-05
-8.62015e-10
-8.33111e-13
1.08154e-05
3.53354e-09
-2.32733e-12
-7.43237e-10
3.03257e-09
-7.43619e-10
-7.61876e-13
3.0318e-09
-8.07829e-13
-3.77708e-06
3.77622e-06
-3.77709e-06
-1.2662e-12
3.77623e-06
-1.1234e-12
-1.11208e-12
-4.80731e-13
-1.0818e-05
-8.61013e-10
1.08154e-05
3.53377e-09
-1.0818e-05
-8.61127e-10
-2.23846e-13
1.08154e-05
3.53378e-09
-3.03219e-13
-7.42762e-10
3.03195e-09
-7.4296e-10
-1.23927e-13
3.03215e-09
-6.00904e-13
-3.77709e-06
3.77623e-06
-3.77709e-06
-2.24592e-13
3.77623e-06
-3.65549e-13
-1.26013e-13
1.7486e-14
-1.0818e-05
-8.61237e-10
1.08154e-05
3.53391e-09
-1.0818e-05
-8.61266e-10
2.565e-13
1.08154e-05
3.53402e-09
1.6512e-14
-7.43094e-10
3.03238e-09
-7.43139e-10
1.54229e-13
3.03254e-09
1.76615e-14
-3.77709e-06
3.77623e-06
-3.77709e-06
2.59134e-13
3.77623e-06
1.75094e-14
1.58707e-13
5.09487e-13
-1.0818e-05
-8.61208e-10
1.08154e-05
3.5341e-09
-1.0818e-05
-8.61143e-10
8.55674e-13
1.08154e-05
3.53426e-09
3.28186e-13
-7.43087e-10
3.03261e-09
-7.4296e-10
7.82138e-13
3.03268e-09
6.36468e-13
-3.77709e-06
3.77623e-06
-3.77709e-06
1.29788e-12
3.77623e-06
3.96108e-13
1.1407e-12
2.13632e-12
-1.0818e-05
-8.62182e-10
1.08154e-05
3.53415e-09
-1.0818e-05
-8.61529e-10
1.08154e-05
3.53505e-09
2.33938e-12
-7.43874e-10
3.0327e-09
-7.43503e-10
3.03359e-09
8.22449e-13
-3.77709e-06
3.77623e-06
-3.77708e-06
3.77622e-06
1.1396e-12
-2.2208e-12
-1.08122e-05
-1.23604e-09
1.08085e-05
4.99878e-09
-1.08122e-05
-1.23724e-09
-9.71835e-13
1.08085e-05
4.99771e-09
-2.07284e-12
-1.01824e-09
4.15203e-09
-1.01917e-09
-8.98927e-13
4.15114e-09
-4.04779e-13
-3.77521e-06
3.77397e-06
-3.77521e-06
-1.52241e-12
3.77397e-06
-5.58448e-13
-1.38752e-12
-9.16239e-13
-1.08122e-05
-1.23586e-09
1.08085e-05
4.99797e-09
-1.08122e-05
-1.23581e-09
-5.17305e-13
1.08085e-05
4.99772e-09
-6.88576e-13
-1.018e-09
4.15138e-09
-1.018e-09
-3.73436e-13
4.15127e-09
-1.05503e-12
-3.77521e-06
3.77397e-06
-3.77521e-06
-5.01238e-13
3.77397e-06
-8.57116e-13
-3.49827e-13
1.95779e-14
-1.08122e-05
-1.23583e-09
1.08085e-05
4.99764e-09
-1.08122e-05
-1.23584e-09
5.54295e-13
1.08085e-05
4.99768e-09
1.81069e-14
-1.01808e-09
4.15127e-09
-1.01809e-09
4.0919e-13
4.15133e-09
1.93299e-14
-3.77521e-06
3.77397e-06
-3.77521e-06
5.39462e-13
3.77397e-06
1.82653e-14
3.87648e-13
9.504e-13
-1.08122e-05
-1.23583e-09
1.08085e-05
4.99783e-09
-1.08122e-05
-1.23589e-09
9.99062e-13
1.08085e-05
4.99814e-09
7.20362e-13
-1.01805e-09
4.15146e-09
-1.01807e-09
9.23342e-13
4.15168e-09
1.09199e-12
-3.77521e-06
3.77397e-06
-3.77521e-06
1.55896e-12
3.77397e-06
8.93192e-13
1.41928e-12
2.22289e-12
-1.08122e-05
-1.23729e-09
1.08085e-05
4.99791e-09
-1.08122e-05
-1.23605e-09
1.08085e-05
4.99905e-09
2.08424e-12
-1.01926e-09
4.15151e-09
-1.01832e-09
4.15247e-09
4.17122e-13
-3.77521e-06
3.77397e-06
-3.77521e-06
3.77397e-06
5.78054e-13
-2.65586e-12
-1.08041e-05
-1.73625e-09
1.07989e-05
6.93002e-09
-1.08041e-05
-1.73808e-09
-1.09148e-12
1.07989e-05
6.92863e-09
-2.37837e-12
-1.45963e-09
5.85906e-09
-1.46111e-09
-1.01908e-12
5.85788e-09
-1.43162e-13
-3.77251e-06
3.77078e-06
-3.77251e-06
-1.76811e-12
3.77078e-06
-2.52715e-13
-1.62755e-12
-1.21044e-12
-1.08041e-05
-1.73627e-09
1.07989e-05
6.92898e-09
-1.08041e-05
-1.73616e-09
-7.36274e-13
1.07989e-05
6.92855e-09
-1.06316e-12
-1.45954e-09
5.85818e-09
-1.45946e-09
-6.2529e-13
5.85784e-09
-1.36606e-12
-3.77251e-06
3.77078e-06
-3.77251e-06
-7.16811e-13
3.77078e-06
-1.20362e-12
-6.08913e-13
2.05839e-14
-1.08041e-05
-1.73612e-09
1.07989e-05
6.92835e-09
-1.08041e-05
-1.73612e-09
7.74901e-13
1.07989e-05
6.92836e-09
1.99155e-14
-1.45945e-09
5.8577e-09
-1.45945e-09
6.64052e-13
5.85771e-09
1.93434e-14
-3.77251e-06
3.77078e-06
-3.77251e-06
7.55106e-13
3.77078e-06
1.86666e-14
6.47731e-13
1.24652e-12
-1.08041e-05
-1.73616e-09
1.07989e-05
6.92857e-09
-1.08041e-05
-1.73627e-09
1.12066e-12
1.07989e-05
6.929e-09
1.09789e-12
-1.45947e-09
5.85789e-09
-1.45955e-09
1.0482e-12
5.85826e-09
1.40404e-12
-3.77251e-06
3.77078e-06
-3.77252e-06
1.80851e-12
3.77078e-06
1.24215e-12
1.66405e-12
2.65128e-12
-1.08041e-05
-1.73808e-09
1.07989e-05
6.92864e-09
-1.08041e-05
-1.73618e-09
1.07989e-05
6.9301e-09
2.3844e-12
-1.46113e-09
5.85796e-09
-1.45958e-09
5.85922e-09
1.54139e-13
-3.77252e-06
3.77078e-06
-3.77251e-06
3.77078e-06
2.76652e-13
-3.23959e-12
-1.07929e-05
-2.32533e-09
1.0786e-05
9.21121e-09
-1.07929e-05
-2.32789e-09
-1.232e-12
1.0786e-05
9.20946e-09
-2.89103e-12
-2.00011e-09
7.94822e-09
-2.00226e-09
-1.14672e-12
7.9467e-09
9.39609e-14
-3.76878e-06
3.76645e-06
-3.76878e-06
-2.04265e-12
3.76645e-06
-1.21939e-14
-1.88431e-12
-1.46408e-12
-1.07929e-05
-2.32559e-09
1.0786e-05
9.20991e-09
-1.07929e-05
-2.32542e-09
-9.26021e-13
1.0786e-05
9.20935e-09
-1.32711e-12
-2.00025e-09
7.94709e-09
-2.0001e-09
-8.23833e-13
7.94661e-09
-1.65145e-12
-3.76878e-06
3.76645e-06
-3.76878e-06
-9.02395e-13
3.76645e-06
-1.49306e-12
-8.03473e-13
1.91871e-14
-1.07929e-05
-2.32534e-09
1.0786e-05
9.20906e-09
-1.07929e-05
-2.32534e-09
9.61731e-13
1.0786e-05
9.20905e-09
1.90764e-14
-2.00004e-09
7.94636e-09
-2.00004e-09
8.60974e-13
7.94635e-09
1.77508e-14
-3.76878e-06
3.76645e-06
-3.76878e-06
9.37828e-13
3.76645e-06
1.72275e-14
8.40185e-13
1.49818e-12
-1.07929e-05
-2.32541e-09
1.0786e-05
9.20933e-09
-1.07929e-05
-2.32557e-09
1.25898e-12
1.0786e-05
9.20988e-09
1.36067e-12
-2.0001e-09
7.9466e-09
-2.00023e-09
1.17463e-12
7.94708e-09
1.68734e-12
-3.76878e-06
3.76645e-06
-3.76878e-06
2.08265e-12
3.76645e-06
1.53029e-12
1.9209e-12
3.23737e-12
-1.07929e-05
-2.32787e-09
1.0786e-05
9.2094e-09
-1.07929e-05
-2.32525e-09
1.0786e-05
9.21121e-09
2.89676e-12
-2.00225e-09
7.94666e-09
-2.00002e-09
7.94825e-09
-8.30498e-14
-3.76878e-06
3.76645e-06
-3.76878e-06
3.76645e-06
3.62601e-14
-3.94627e-12
-1.07783e-05
-3.00257e-09
1.07695e-05
1.18387e-08
-1.07783e-05
-3.00591e-09
-1.39365e-12
1.07695e-05
1.18366e-08
-3.52991e-12
-2.625e-09
1.03709e-08
-2.62789e-09
-1.29581e-12
1.03691e-08
3.37039e-13
-3.76383e-06
3.76082e-06
-3.76383e-06
-2.34657e-12
3.76082e-06
2.22302e-13
-2.17009e-12
-1.71221e-12
-1.07783e-05
-3.00306e-09
1.07695e-05
1.18372e-08
-1.07783e-05
-3.00285e-09
-1.10493e-12
1.07695e-05
1.18365e-08
-1.57241e-12
-2.62536e-09
1.03696e-08
-2.62517e-09
-1.00393e-12
1.0369e-08
-1.93816e-12
-3.76383e-06
3.76082e-06
-3.76383e-06
-1.07766e-12
3.76082e-06
-1.77308e-12
-9.79897e-13
2.1117e-14
-1.07783e-05
-3.00274e-09
1.07695e-05
1.18361e-08
-1.07783e-05
-3.00273e-09
1.14408e-12
1.07695e-05
1.18361e-08
1.8911e-14
-2.62507e-09
1.03686e-08
-2.62507e-09
1.04084e-12
1.03686e-08
1.91185e-14
-3.76382e-06
3.76082e-06
-3.76382e-06
1.11599e-12
3.76082e-06
1.66407e-14
1.01625e-12
1.74937e-12
-1.07783e-05
-3.00284e-09
1.07695e-05
1.18365e-08
-1.07783e-05
-3.00305e-09
1.42177e-12
1.07695e-05
1.18371e-08
1.60586e-12
-2.62516e-09
1.03689e-08
-2.62535e-09
1.32296e-12
1.03695e-08
1.97712e-12
-3.76383e-06
3.76082e-06
-3.76383e-06
2.3902e-12
3.76082e-06
1.81066e-12
2.20759e-12
3.9389e-12
-1.07783e-05
-3.0059e-09
1.07695e-05
1.18365e-08
-1.07783e-05
-3.00248e-09
1.07695e-05
1.18387e-08
3.53469e-12
-2.62788e-09
1.0369e-08
-2.6249e-09
1.03709e-08
-3.27181e-13
-3.76383e-06
3.76083e-06
-3.76383e-06
3.76082e-06
-1.98755e-13
-4.75255e-12
-1.07596e-05
-3.78728e-09
1.07486e-05
1.48817e-08
-1.07596e-05
-3.79154e-09
-1.57757e-12
1.07486e-05
1.48791e-08
-4.28104e-12
-3.34748e-09
1.31739e-08
-3.35121e-09
-1.46695e-12
1.31716e-08
6.2233e-13
-3.75748e-06
3.75369e-06
-3.75748e-06
-2.68454e-12
3.75369e-06
4.8171e-13
-2.48861e-12
-1.97669e-12
-1.07596e-05
-3.78806e-09
1.07486e-05
1.48799e-08
-1.07596e-05
-3.78779e-09
-1.29139e-12
1.07485e-05
1.4879e-08
-1.82509e-12
-3.34809e-09
1.31723e-08
-3.34785e-09
-1.18336e-12
1.31715e-08
-2.24702e-12
-3.75748e-06
3.75369e-06
-3.75747e-06
-1.26037e-12
3.75368e-06
-2.06673e-12
-1.15606e-12
2.21972e-14
-1.07596e-05
-3.78765e-09
1.07485e-05
1.48786e-08
-1.07596e-05
-3.78765e-09
1.33244e-12
1.07485e-05
1.48786e-08
2.09022e-14
-3.34773e-09
1.31711e-08
-3.34773e-09
1.22424e-12
1.31711e-08
1.99986e-14
-3.75747e-06
3.75368e-06
-3.75747e-06
1.30059e-12
3.75368e-06
1.80043e-14
1.19571e-12
2.01574e-12
-1.07596e-05
-3.78779e-09
1.07485e-05
1.4879e-08
-1.07596e-05
-3.78805e-09
1.60677e-12
1.07486e-05
1.48798e-08
1.86206e-12
-3.34785e-09
1.31715e-08
-3.34808e-09
1.49642e-12
1.31722e-08
2.28788e-12
-3.75747e-06
3.75369e-06
-3.75748e-06
2.73094e-12
3.75369e-06
2.10793e-12
2.52999e-12
4.74204e-12
-1.07596e-05
-3.79153e-09
1.07486e-05
1.48791e-08
-1.07596e-05
-3.7872e-09
1.07486e-05
1.48818e-08
4.2828e-12
-3.3512e-09
1.31716e-08
-3.34738e-09
1.31739e-08
-6.13339e-13
-3.75748e-06
3.75369e-06
-3.75748e-06
3.75369e-06
-4.56317e-13
-5.65817e-12
-1.07363e-05
-4.69896e-09
1.07226e-05
1.84103e-08
-1.07363e-05
-4.70425e-09
-1.78426e-12
1.07226e-05
1.84072e-08
-5.1241e-12
-4.18392e-09
1.64143e-08
-4.1886e-09
-1.65951e-12
1.64116e-08
9.7252e-13
-3.7495e-06
3.7448e-06
-3.7495e-06
-3.05962e-12
3.7448e-06
7.95872e-13
-2.84016e-12
-2.2642e-12
-1.07363e-05
-4.70006e-09
1.07226e-05
1.84081e-08
-1.07363e-05
-4.69973e-09
-1.49053e-12
1.07226e-05
1.84071e-08
-2.09786e-12
-4.18482e-09
1.64124e-08
-4.18452e-09
-1.37361e-12
1.64115e-08
-2.5847e-12
-3.7495e-06
3.7448e-06
-3.7495e-06
-1.45554e-12
3.7448e-06
-2.38545e-12
-1.34244e-12
2.17966e-14
-1.07363e-05
-4.69956e-09
1.07226e-05
1.84066e-08
-1.07363e-05
-4.69956e-09
1.53045e-12
1.07226e-05
1.84066e-08
2.12596e-14
-4.18437e-09
1.6411e-08
-4.18437e-09
1.41519e-12
1.6411e-08
1.96569e-14
-3.7495e-06
3.7448e-06
-3.7495e-06
1.49521e-12
3.7448e-06
1.84044e-14
1.38317e-12
2.30177e-12
-1.07363e-05
-4.69972e-09
1.07226e-05
1.84071e-08
-1.07363e-05
-4.70004e-09
1.8119e-12
1.07226e-05
1.8408e-08
2.13501e-12
-4.18452e-09
1.64115e-08
-4.1848e-09
1.68895e-12
1.64123e-08
2.62446e-12
-3.7495e-06
3.7448e-06
-3.7495e-06
3.10485e-12
3.7448e-06
2.4274e-12
2.88216e-12
5.64614e-12
-1.07363e-05
-4.70424e-09
1.07226e-05
1.84072e-08
-1.07363e-05
-4.69886e-09
1.07226e-05
1.84103e-08
5.12475e-12
-4.18859e-09
1.64115e-08
-4.18381e-09
1.64144e-08
-9.64242e-13
-3.74951e-06
3.74481e-06
-3.7495e-06
3.7448e-06
-7.69583e-13
-6.68547e-12
-1.07076e-05
-5.76398e-09
1.06908e-05
2.25235e-08
-1.07076e-05
-5.77051e-09
-2.02295e-12
1.06908e-05
2.25198e-08
-6.07963e-12
-5.16223e-09
2.01966e-08
-5.16802e-09
-1.87857e-12
2.01933e-08
1.39184e-12
-3.73964e-06
3.73388e-06
-3.73964e-06
-3.49081e-12
3.73388e-06
1.17902e-12
-3.23723e-12
-2.57744e-12
-1.07076e-05
-5.76548e-09
1.06908e-05
2.25208e-08
-1.07076e-05
-5.7651e-09
-1.70535e-12
1.06908e-05
2.25197e-08
-2.39603e-12
-5.16347e-09
2.01942e-08
-5.16312e-09
-1.57857e-12
2.01932e-08
-2.95794e-12
-3.73964e-06
3.73387e-06
-3.73964e-06
-1.66673e-12
3.73387e-06
-2.73768e-12
-1.5441e-12
1.83754e-14
-1.07076e-05
-5.7649e-09
1.06908e-05
2.25191e-08
-1.07076e-05
-5.7649e-09
1.73827e-12
1.06908e-05
2.25191e-08
1.94694e-14
-5.16294e-09
2.01926e-08
-5.16294e-09
1.61679e-12
2.01926e-08
1.59367e-14
-3.73963e-06
3.73387e-06
-3.73963e-06
1.69977e-12
3.73387e-06
1.63809e-14
1.58138e-12
2.6085e-12
-1.07076e-05
-5.76509e-09
1.06908e-05
2.25197e-08
-1.07076e-05
-5.76546e-09
2.0439e-12
1.06908e-05
2.25208e-08
2.42946e-12
-5.16311e-09
2.01932e-08
-5.16346e-09
1.90431e-12
2.01942e-08
2.99067e-12
-3.73964e-06
3.73387e-06
-3.73964e-06
3.52594e-12
3.73387e-06
2.77592e-12
3.27408e-12
6.68785e-12
-1.07076e-05
-5.7705e-09
1.06908e-05
2.25197e-08
-1.07076e-05
-5.76392e-09
1.06908e-05
2.25235e-08
6.08156e-12
-5.16801e-09
2.01932e-08
-5.16212e-09
2.01966e-08
-1.37777e-12
-3.73964e-06
3.73388e-06
-3.73964e-06
3.73388e-06
-1.15398e-12
-7.93798e-12
-1.06726e-05
-7.0038e-09
1.06523e-05
2.73014e-08
-1.06726e-05
-7.01176e-09
-2.30994e-12
1.06523e-05
2.7297e-08
-7.19061e-12
-6.29864e-09
2.458e-08
-6.30575e-09
-2.13633e-12
2.45761e-08
1.80989e-12
-3.72758e-06
3.72057e-06
-3.72758e-06
-3.99899e-12
3.72057e-06
1.59601e-12
-3.69865e-12
-2.91649e-12
-1.06726e-05
-7.00578e-09
1.06523e-05
2.72982e-08
-1.06725e-05
-7.00533e-09
-1.93569e-12
1.06523e-05
2.7297e-08
-2.71902e-12
-6.30033e-09
2.45772e-08
-6.29991e-09
-1.7993e-12
2.45761e-08
-3.36859e-12
-3.72757e-06
3.72057e-06
-3.72757e-06
-1.89248e-12
3.72056e-06
-3.12521e-12
-1.76125e-12
1.84085e-14
-1.06725e-05
-7.00511e-09
1.06523e-05
2.72962e-08
-1.06725e-05
-7.00511e-09
1.96867e-12
1.06523e-05
2.72962e-08
1.47404e-14
-6.29971e-09
2.45754e-08
-6.29971e-09
1.82895e-12
2.45754e-08
1.57609e-14
-3.72757e-06
3.72056e-06
-3.72757e-06
1.92644e-12
3.72056e-06
1.19614e-14
1.79096e-12
2.94897e-12
-1.06725e-05
-7.00532e-09
1.06523e-05
2.72969e-08
-1.06726e-05
-7.00577e-09
2.32707e-12
1.06523e-05
2.72982e-08
2.74503e-12
-6.2999e-09
2.45761e-08
-6.30031e-09
2.15343e-12
2.45772e-08
3.40239e-12
-3.72757e-06
3.72056e-06
-3.72757e-06
4.02895e-12
3.72057e-06
3.15638e-12
3.72409e-12
7.96289e-12
-1.06726e-05
-7.01176e-09
1.06523e-05
2.72969e-08
-1.06726e-05
-7.0038e-09
1.06523e-05
2.73013e-08
7.20619e-12
-6.30575e-09
2.4576e-08
-6.29861e-09
2.458e-08
-1.78874e-12
-3.72758e-06
3.72057e-06
-3.72758e-06
3.72057e-06
-1.57714e-12
-9.52921e-12
-1.06302e-05
-8.44216e-09
1.06058e-05
3.28326e-08
-1.06302e-05
-8.45173e-09
-2.6392e-12
1.06058e-05
3.28275e-08
-8.60008e-12
-7.62466e-09
2.96844e-08
-7.63327e-09
-2.44498e-12
2.96797e-08
2.17389e-12
-3.71294e-06
3.7045e-06
-3.71294e-06
-4.56388e-12
3.7045e-06
1.97794e-12
-4.23674e-12
-3.27675e-12
-1.06302e-05
-8.44465e-09
1.06058e-05
3.28289e-08
-1.06302e-05
-8.44413e-09
-2.17765e-12
1.06058e-05
3.28275e-08
-3.06697e-12
-7.62683e-09
2.9681e-08
-7.62634e-09
-2.03291e-12
2.96797e-08
-3.80971e-12
-3.71294e-06
3.70449e-06
-3.71293e-06
-2.12989e-12
3.70449e-06
-3.54826e-12
-1.99052e-12
3.50825e-14
-1.06302e-05
-8.44389e-09
1.06058e-05
3.28266e-08
-1.06302e-05
-8.44389e-09
2.24334e-12
1.06058e-05
3.28266e-08
2.24762e-14
-7.62612e-09
2.96789e-08
-7.62612e-09
2.0787e-12
2.96789e-08
3.09014e-14
-3.71293e-06
3.70448e-06
-3.71293e-06
2.19444e-12
3.70448e-06
1.8977e-14
2.03611e-12
3.34066e-12
-1.06302e-05
-8.44413e-09
1.06058e-05
3.28275e-08
-1.06302e-05
-8.44465e-09
2.67387e-12
1.06058e-05
3.28289e-08
3.10868e-12
-7.62634e-09
2.96797e-08
-7.62682e-09
2.46843e-12
2.9681e-08
3.87483e-12
-3.71293e-06
3.70449e-06
-3.71294e-06
4.62354e-12
3.70449e-06
3.59593e-12
4.27308e-12
9.5369e-12
-1.06302e-05
-8.45175e-09
1.06058e-05
3.28274e-08
-1.06302e-05
-8.44216e-09
1.06059e-05
3.28326e-08
8.61934e-12
-7.63329e-09
2.96797e-08
-7.62468e-09
2.96843e-08
-2.15823e-12
-3.71294e-06
3.7045e-06
-3.71294e-06
3.7045e-06
-1.96208e-12
-1.13597e-11
-1.05795e-05
-1.01016e-08
1.05504e-05
3.92e-08
-1.05794e-05
-1.01129e-08
-2.96766e-12
1.05504e-05
3.91943e-08
-1.03014e-11
-9.15271e-09
3.55533e-08
-9.16295e-09
-2.77378e-12
3.55481e-08
2.61198e-12
-3.69534e-06
3.68524e-06
-3.69534e-06
-5.1166e-12
3.68524e-06
2.3666e-12
-4.79868e-12
-3.67223e-12
-1.05794e-05
-1.01046e-08
1.05503e-05
3.91959e-08
-1.05794e-05
-1.0104e-08
-2.44906e-12
1.05503e-05
3.91942e-08
-3.43608e-12
-9.15536e-09
3.55496e-08
-9.15479e-09
-2.28164e-12
3.5548e-08
-4.28641e-12
-3.69534e-06
3.68523e-06
-3.69533e-06
-2.39739e-12
3.68523e-06
-3.99778e-12
-2.23569e-12
5.48746e-14
-1.05794e-05
-1.01037e-08
1.05503e-05
3.91932e-08
-1.05794e-05
-1.01037e-08
2.55248e-12
1.05503e-05
3.91932e-08
4.39502e-14
-9.15454e-09
3.55471e-08
-9.15455e-09
2.37001e-12
3.55471e-08
4.84916e-14
-3.69533e-06
3.68522e-06
-3.69533e-06
2.49648e-12
3.68522e-06
3.76815e-14
2.32023e-12
3.76903e-12
-1.05794e-05
-1.0104e-08
1.05503e-05
3.91942e-08
-1.05794e-05
-1.01046e-08
3.03193e-12
1.05503e-05
3.91959e-08
3.51725e-12
-9.1548e-09
3.5548e-08
-9.15536e-09
2.82797e-12
3.55496e-08
4.38816e-12
-3.69533e-06
3.68523e-06
-3.69534e-06
5.23213e-12
3.68523e-06
4.0865e-12
4.88183e-12
1.12838e-11
-1.05794e-05
-1.01129e-08
1.05504e-05
3.91942e-08
-1.05795e-05
-1.01014e-08
1.05504e-05
3.92002e-08
1.02974e-11
-9.16297e-09
3.5548e-08
-9.15259e-09
3.55533e-08
-2.62266e-12
-3.69534e-06
3.68524e-06
-3.69535e-06
3.68524e-06
-2.33182e-12
-1.30912e-11
-1.0519e-05
-1.20093e-08
1.04845e-05
4.65064e-08
-1.0519e-05
-1.20226e-08
-3.26266e-12
1.04845e-05
4.65001e-08
-1.20851e-11
-1.09138e-08
4.23035e-08
-1.09258e-08
-3.08054e-12
4.22978e-08
3.43927e-12
-3.67433e-06
3.66232e-06
-3.67432e-06
-5.62849e-12
3.66231e-06
2.99734e-12
-5.32765e-12
-4.12912e-12
-1.0519e-05
-1.2013e-08
1.04845e-05
4.6502e-08
-1.0519e-05
-1.20122e-08
-2.78062e-12
1.04845e-05
4.65e-08
-3.85426e-12
-1.09169e-08
4.22994e-08
-1.09162e-08
-2.57488e-12
4.22977e-08
-4.82311e-12
-3.67432e-06
3.66231e-06
-3.67431e-06
-2.72369e-12
3.6623e-06
-4.49409e-12
-2.52514e-12
4.56773e-14
-1.05189e-05
-1.20118e-08
1.04845e-05
4.64988e-08
-1.05189e-05
-1.20118e-08
2.86405e-12
1.04845e-05
4.64988e-08
5.50093e-14
-1.09159e-08
4.22966e-08
-1.09159e-08
2.6841e-12
4.22966e-08
4.06286e-14
-3.67431e-06
3.6623e-06
-3.67431e-06
2.80698e-12
3.6623e-06
4.7238e-14
2.6287e-12
4.20421e-12
-1.0519e-05
-1.20122e-08
1.04845e-05
4.65e-08
-1.0519e-05
-1.20129e-08
3.3256e-12
1.04845e-05
4.6502e-08
3.95153e-12
-1.09162e-08
4.22977e-08
-1.09169e-08
3.16102e-12
4.22995e-08
4.90998e-12
-3.67431e-06
3.6623e-06
-3.67432e-06
5.75469e-12
3.66231e-06
4.60405e-12
5.45334e-12
1.29424e-11
-1.0519e-05
-1.20225e-08
1.04845e-05
4.65001e-08
-1.0519e-05
-1.20087e-08
1.04845e-05
4.6507e-08
1.20286e-11
-1.09257e-08
4.22977e-08
-1.09133e-08
4.23039e-08
-3.46715e-12
-3.67432e-06
3.66231e-06
-3.67433e-06
3.66232e-06
-2.92183e-12
-1.45227e-11
-1.04475e-05
-1.41704e-08
1.04069e-05
5.47728e-08
-1.04474e-05
-1.41864e-08
-3.55258e-12
1.04068e-05
5.47652e-08
-1.36302e-11
-1.29263e-08
5.00052e-08
-1.29405e-08
-3.36365e-12
4.99987e-08
4.74375e-12
-3.64939e-06
3.63522e-06
-3.64939e-06
-6.16277e-12
3.63521e-06
4.07224e-12
-5.83429e-12
-4.63175e-12
-1.04474e-05
-1.41752e-08
1.04068e-05
5.47674e-08
-1.04474e-05
-1.41743e-08
-3.16518e-12
1.04068e-05
5.4765e-08
-4.33394e-12
-1.29303e-08
5.00006e-08
-1.29295e-08
-2.93441e-12
4.99985e-08
-5.41971e-12
-3.64938e-06
3.6352e-06
-3.64937e-06
-3.10389e-12
3.6352e-06
-5.05693e-12
-2.8796e-12
3.21451e-16
-1.04474e-05
-1.41739e-08
1.04068e-05
5.47636e-08
-1.04474e-05
-1.41738e-08
3.16129e-12
1.04068e-05
5.47636e-08
2.23552e-14
-1.29291e-08
4.99972e-08
-1.29291e-08
2.97908e-12
4.99972e-08
-3.86891e-16
-3.64937e-06
3.63519e-06
-3.64937e-06
3.10867e-12
3.63519e-06
1.85338e-14
2.92573e-12
4.63093e-12
-1.04474e-05
-1.41743e-08
1.04068e-05
5.4765e-08
-1.04474e-05
-1.41752e-08
3.56077e-12
1.04068e-05
5.47674e-08
4.36942e-12
-1.29294e-08
4.99985e-08
-1.29302e-08
3.40382e-12
5.00006e-08
5.42918e-12
-3.64937e-06
3.6352e-06
-3.64938e-06
6.19917e-12
3.6352e-06
5.10918e-12
5.90882e-12
1.44871e-11
-1.04474e-05
-1.41863e-08
1.04068e-05
5.47652e-08
-1.04475e-05
-1.41701e-08
1.04069e-05
5.4773e-08
1.35722e-11
-1.29405e-08
4.99986e-08
-1.29258e-08
5.00057e-08
-4.73882e-12
-3.64939e-06
3.63521e-06
-3.64939e-06
3.63521e-06
-4.00674e-12
-1.62756e-11
-1.03634e-05
-1.6617e-08
1.03159e-05
6.41205e-08
-1.03633e-05
-1.6636e-08
-3.92727e-12
1.03158e-05
6.41114e-08
-1.51629e-11
-1.52081e-08
5.87269e-08
-1.52252e-08
-3.69049e-12
5.87189e-08
6.06913e-12
-3.62e-06
3.60338e-06
-3.62e-06
-6.81095e-12
3.60337e-06
5.36647e-12
-6.40943e-12
-5.16565e-12
-1.03633e-05
-1.66232e-08
1.03158e-05
6.41138e-08
-1.03633e-05
-1.6622e-08
-3.55197e-12
1.03158e-05
6.4111e-08
-4.85145e-12
-1.52134e-08
5.87212e-08
-1.52124e-08
-3.32626e-12
5.87187e-08
-6.06426e-12
-3.61999e-06
3.60336e-06
-3.61998e-06
-3.49077e-12
3.60335e-06
-5.67684e-12
-3.26857e-12
-2.12326e-15
-1.03633e-05
-1.66215e-08
1.03158e-05
6.41093e-08
-1.03633e-05
-1.66215e-08
3.54643e-12
1.03158e-05
6.41093e-08
-1.6043e-14
-1.52119e-08
5.87171e-08
-1.52119e-08
3.29853e-12
5.87171e-08
-4.88063e-15
-3.61997e-06
3.60335e-06
-3.61997e-06
3.48828e-12
3.60335e-06
-1.38133e-14
3.24998e-12
5.16732e-12
-1.03633e-05
-1.6622e-08
1.03158e-05
6.4111e-08
-1.03633e-05
-1.66232e-08
3.91292e-12
1.03158e-05
6.41137e-08
4.82582e-12
-1.52124e-08
5.87187e-08
-1.52134e-08
3.66706e-12
5.87212e-08
6.06285e-12
-3.61998e-06
3.60335e-06
-3.61999e-06
6.78635e-12
3.60336e-06
5.66464e-12
6.3904e-12
1.63873e-11
-1.03633e-05
-1.6636e-08
1.03158e-05
6.41113e-08
-1.03634e-05
-1.66173e-08
1.03159e-05
6.412e-08
1.519e-11
-1.52252e-08
5.87189e-08
-1.52081e-08
5.87268e-08
-6.02605e-12
-3.62e-06
3.60337e-06
-3.62e-06
3.60338e-06
-5.36746e-12
-1.87879e-11
-1.02651e-05
-1.93603e-08
1.02099e-05
7.45856e-08
-1.02651e-05
-1.93823e-08
-4.3852e-12
1.02099e-05
7.45754e-08
-1.72886e-11
-1.77764e-08
6.85308e-08
-1.77966e-08
-4.10299e-12
6.85214e-08
7.12689e-12
-3.58559e-06
3.56622e-06
-3.58559e-06
-7.55033e-12
3.56622e-06
6.5205e-12
-7.09583e-12
-5.75157e-12
-1.02651e-05
-1.93675e-08
1.02099e-05
7.4578e-08
-1.02651e-05
-1.93662e-08
-3.94276e-12
1.02099e-05
7.45748e-08
-5.39804e-12
-1.77829e-08
6.8524e-08
-1.77817e-08
-3.70306e-12
6.8521e-08
-6.76456e-12
-3.58558e-06
3.56621e-06
-3.58557e-06
-3.87934e-12
3.5662e-06
-6.33748e-12
-3.64587e-12
5.20473e-14
-1.02651e-05
-1.93656e-08
1.02098e-05
7.45728e-08
-1.02651e-05
-1.93656e-08
4.04295e-12
1.02098e-05
7.45728e-08
1.84689e-14
-1.77811e-08
6.85192e-08
-1.77811e-08
3.74876e-12
6.85192e-08
4.3344e-14
-3.58556e-06
3.56619e-06
-3.58556e-06
3.97352e-12
3.56619e-06
1.59351e-14
3.68948e-12
5.84198e-12
-1.02651e-05
-1.93662e-08
1.02099e-05
7.45748e-08
-1.02651e-05
-1.93676e-08
4.42354e-12
1.02099e-05
7.4578e-08
5.44202e-12
-1.77817e-08
6.8521e-08
-1.7783e-08
4.11569e-12
6.85239e-08
6.84752e-12
-3.58557e-06
3.5662e-06
-3.58558e-06
7.58953e-12
3.56621e-06
6.38062e-12
7.09466e-12
1.88176e-11
-1.02651e-05
-1.93823e-08
1.02099e-05
7.45753e-08
-1.02651e-05
-1.93605e-08
1.02099e-05
7.45854e-08
1.7349e-11
-1.77966e-08
6.85214e-08
-1.77767e-08
6.85303e-08
-7.11855e-12
-3.58559e-06
3.56622e-06
-3.58559e-06
3.56623e-06
-6.53638e-12
-2.15297e-11
-1.01511e-05
-2.24108e-08
1.00874e-05
8.62076e-08
-1.01511e-05
-2.24358e-08
-4.86748e-12
1.00873e-05
8.61963e-08
-1.99403e-11
-2.06446e-08
7.94636e-08
-2.06675e-08
-4.56346e-12
7.94534e-08
8.3016e-12
-3.54557e-06
3.52315e-06
-3.54557e-06
-8.36492e-12
3.52315e-06
7.63469e-12
-7.8617e-12
-6.40522e-12
-1.01511e-05
-2.24189e-08
1.00873e-05
8.61991e-08
-1.01511e-05
-2.24173e-08
-4.40286e-12
1.00873e-05
8.61954e-08
-6.00652e-12
-2.06519e-08
7.94561e-08
-2.06504e-08
-4.11216e-12
7.94527e-08
-7.54935e-12
-3.54556e-06
3.52314e-06
-3.54555e-06
-4.33303e-12
3.52313e-06
-7.06514e-12
-4.05288e-12
5.14633e-14
-1.0151e-05
-2.24166e-08
1.00873e-05
8.61931e-08
-1.0151e-05
-2.24165e-08
4.49989e-12
1.00873e-05
8.61931e-08
6.31973e-14
-2.06498e-08
7.94506e-08
-2.06498e-08
4.24351e-12
7.94506e-08
4.6316e-14
-3.54554e-06
3.52312e-06
-3.54554e-06
4.43294e-12
3.52312e-06
5.51884e-14
4.1731e-12
6.48782e-12
-1.01511e-05
-2.24172e-08
1.00873e-05
8.61954e-08
-1.01511e-05
-2.24188e-08
4.91218e-12
1.00873e-05
8.61992e-08
6.1191e-12
-2.06504e-08
7.94527e-08
-2.06519e-08
4.63271e-12
7.94561e-08
7.638e-12
-3.54555e-06
3.52313e-06
-3.54556e-06
8.43665e-12
3.52314e-06
7.17605e-12
7.9302e-12
2.14544e-11
-1.01511e-05
-2.24357e-08
1.00873e-05
8.61964e-08
-1.01511e-05
-2.24105e-08
1.00874e-05
8.6208e-08
1.99228e-11
-2.06675e-08
7.94534e-08
-2.06445e-08
7.94637e-08
-8.32338e-12
-3.54557e-06
3.52315e-06
-3.54557e-06
3.52316e-06
-7.60554e-12
-2.41713e-11
-1.00197e-05
-2.57653e-08
9.94648e-06
9.89802e-08
-1.00196e-05
-2.57941e-08
-5.41784e-12
9.94644e-06
9.8967e-08
-2.25722e-11
-2.381e-08
9.15175e-08
-2.38363e-08
-5.07723e-12
9.15059e-08
9.75868e-12
-3.49934e-06
3.47356e-06
-3.49933e-06
-9.32421e-12
3.47356e-06
8.94491e-12
-8.73444e-12
-7.12235e-12
-1.00196e-05
-2.57749e-08
9.94641e-06
9.89699e-08
-1.00196e-05
-2.5773e-08
-4.93107e-12
9.94639e-06
9.89655e-08
-6.68848e-12
-2.38185e-08
9.15087e-08
-2.38167e-08
-4.60934e-12
9.15047e-08
-8.42517e-12
-3.49932e-06
3.47354e-06
-3.49931e-06
-4.85804e-12
3.47353e-06
-7.88915e-12
-4.54508e-12
-6.82718e-15
-1.00196e-05
-2.57722e-08
9.94637e-06
9.89629e-08
-1.00196e-05
-2.57722e-08
4.91831e-12
9.94637e-06
9.89629e-08
1.68062e-14
-2.3816e-08
9.15023e-08
-2.38159e-08
4.65285e-12
9.15023e-08
-8.4351e-15
-3.4993e-06
3.47352e-06
-3.4993e-06
4.85332e-12
3.47352e-06
1.60037e-14
4.59091e-12
7.11599e-12
-1.00196e-05
-2.5773e-08
9.94639e-06
9.89655e-08
-1.00196e-05
-2.57749e-08
5.40548e-12
9.94641e-06
9.89699e-08
6.71932e-12
-2.38167e-08
9.15047e-08
-2.38184e-08
5.07797e-12
9.15087e-08
8.42217e-12
-3.49931e-06
3.47353e-06
-3.49932e-06
9.30697e-12
3.47354e-06
7.9351e-12
8.75747e-12
2.42342e-11
-1.00196e-05
-2.57941e-08
9.94644e-06
9.89669e-08
-1.00197e-05
-2.57654e-08
9.94648e-06
9.898e-08
2.25481e-11
-2.38362e-08
9.15058e-08
-2.38099e-08
9.15176e-08
-9.7424e-12
-3.49933e-06
3.47356e-06
-3.49934e-06
3.47356e-06
-8.94094e-12
-2.73567e-11
-9.86903e-06
-2.94283e-08
9.78557e-06
1.12916e-07
-9.86899e-06
-2.94609e-08
-6.03197e-12
9.78553e-06
1.129e-07
-2.54441e-11
-2.72905e-08
1.04763e-07
-2.73207e-08
-5.70713e-12
1.04749e-07
1.10866e-11
-3.44626e-06
3.41682e-06
-3.44626e-06
-1.03983e-11
3.41681e-06
1.03044e-11
-9.75322e-12
-7.89284e-12
-9.86896e-06
-2.94392e-08
9.7855e-06
1.12903e-07
-9.86893e-06
-2.9437e-08
-5.46322e-12
9.78547e-06
1.12898e-07
-7.44053e-12
-2.73004e-08
1.04752e-07
-2.72984e-08
-5.14722e-12
1.04748e-07
-9.36221e-12
-3.44624e-06
3.4168e-06
-3.44623e-06
-5.38559e-12
3.41678e-06
-8.79643e-12
-5.07544e-12
-8.27199e-15
-9.86892e-06
-2.9436e-08
9.78545e-06
1.12895e-07
-9.86892e-06
-2.94361e-08
5.45182e-12
9.78545e-06
1.12895e-07
-2.35139e-14
-2.72976e-08
1.04745e-07
-2.72976e-08
5.11234e-12
1.04745e-07
-1.06925e-14
-3.44622e-06
3.41677e-06
-3.44622e-06
5.37793e-12
3.41677e-06
-2.09685e-14
5.04871e-12
7.89768e-12
-9.86893e-06
-2.9437e-08
9.78547e-06
1.12898e-07
-9.86896e-06
-2.94392e-08
6.07265e-12
9.7855e-06
1.12903e-07
7.40797e-12
-2.72984e-08
1.04748e-07
-2.73004e-08
5.64609e-12
1.04752e-07
9.35796e-12
-3.44623e-06
3.41678e-06
-3.44624e-06
1.03698e-11
3.4168e-06
8.77797e-12
9.70405e-12
2.74403e-11
-9.86899e-06
-2.9461e-08
9.78553e-06
1.129e-07
-9.86903e-06
-2.94285e-08
9.78557e-06
1.12915e-07
2.54916e-11
-2.73207e-08
1.04749e-07
-2.72908e-08
1.04762e-07
-1.10578e-11
-3.44626e-06
3.41682e-06
-3.44626e-06
3.41682e-06
-1.03405e-11
-3.08564e-11
-9.69755e-06
-3.3387e-08
9.603e-06
1.27964e-07
-9.69751e-06
-3.34234e-08
-6.55643e-12
9.60296e-06
1.27947e-07
-2.88531e-11
-3.1065e-08
1.19114e-07
-3.10987e-08
-6.44174e-12
1.19099e-07
1.24439e-11
-3.38574e-06
3.35234e-06
-3.38574e-06
-1.14914e-11
3.35234e-06
1.16339e-11
-1.08146e-11
-8.65715e-12
-9.69747e-06
-3.33988e-08
9.60293e-06
1.2795e-07
-9.69744e-06
-3.33963e-08
-5.98268e-12
9.60289e-06
1.27945e-07
-8.22691e-12
-3.10758e-08
1.19102e-07
-3.10735e-08
-5.66478e-12
1.19097e-07
-1.03217e-11
-3.38572e-06
3.35232e-06
-3.38571e-06
-5.90916e-12
3.35231e-06
-9.73053e-12
-5.58837e-12
2.65448e-14