/*--------------------------------*- C++ -*----------------------------------*\
  =========                 |
  \\      /  F ield         | OpenFOAM: The Open Source CFD Toolbox
   \\    /   O peration     | Website:  https://openfoam.org
    \\  /    A nd           | Version:  9
     \\/     M anipulation  |
\*---------------------------------------------------------------------------*/
FoamFile
{
    format      ascii;
    class       volVectorField;
    location    "0.8";
    object      U;
}
// * * * * * * * * * * * * * * * * * * * * * * * * * * * * * * * * * * * * * //

dimensions      [0 1 -1 0 0 0 0];

internalField   nonuniform List<vector> 
36360
(
(2.89644e-06 -0.0205684 -0.936526)
(2.87338e-06 -0.0205683 -7.20809e-09)
(4.05374e-06 -0.0205755 -0.945321)
(4.0744e-06 -0.0205755 8.0808e-09)
(5.02603e-07 -0.00718148 -0.924089)
(4.83382e-07 -0.00718142 -5.24948e-09)
(1.01762e-06 -0.00718553 -0.932474)
(1.0211e-06 -0.00718555 7.79613e-09)
(2.86939e-06 -0.0205683 -1.01096e-10)
(2.8696e-06 -0.0205683 9.49054e-11)
(4.08072e-06 -0.0205755 4.23389e-10)
(4.08264e-06 -0.0205755 -6.71126e-11)
(4.79922e-07 -0.0071814 -3.2472e-10)
(4.79731e-07 -0.00718139 3.15739e-11)
(1.02187e-06 -0.00718555 5.39433e-10)
(1.02206e-06 -0.00718555 -2.07672e-11)
(2.87015e-06 -0.0205683 3.02125e-11)
(2.87048e-06 -0.0205683 2.40181e-12)
(4.08346e-06 -0.0205755 -8.65124e-12)
(4.0839e-06 -0.0205755 4.96777e-11)
(4.79856e-07 -0.00718139 2.79666e-11)
(4.79915e-07 -0.00718139 1.58654e-11)
(1.02218e-06 -0.00718555 3.7984e-12)
(1.02229e-06 -0.00718555 4.22028e-11)
(2.87055e-06 -0.0205683 -6.54214e-11)
(2.87085e-06 -0.0205683 1.26049e-10)
(4.08393e-06 -0.0205755 1.04539e-10)
(4.08271e-06 -0.0205755 -3.92418e-10)
(4.79909e-07 -0.0071814 7.82144e-12)
(4.80197e-07 -0.0071814 3.58016e-10)
(1.02239e-06 -0.00718555 6.26792e-11)
(1.02238e-06 -0.00718556 -5.05044e-10)
(2.87524e-06 -0.0205683 7.22801e-09)
(2.89851e-06 -0.0205684 0.936526)
(4.07692e-06 -0.0205755 -8.06546e-09)
(4.05652e-06 -0.0205755 0.945321)
(4.83735e-07 -0.00718143 5.27521e-09)
(5.02987e-07 -0.00718149 0.924089)
(1.02175e-06 -0.00718555 -7.77764e-09)
(1.01833e-06 -0.00718554 0.932474)
(2.21273e-06 -0.0205607 -0.935813)
(2.21111e-06 -0.0205607 -1.85358e-09)
(2.34864e-06 -0.0205645 -0.935994)
(2.34681e-06 -0.0205645 -2.0924e-09)
(2.299e-07 -0.00717856 -0.923394)
(2.23627e-07 -0.00717858 -1.25475e-09)
(2.9977e-07 -0.00717989 -0.923571)
(2.93404e-07 -0.00717992 -1.74388e-09)
(2.21146e-06 -0.0205607 -4.97317e-10)
(2.21227e-06 -0.0205607 -1.33935e-10)
(2.34955e-06 -0.0205645 3.45283e-10)
(2.35177e-06 -0.0205645 2.09908e-10)
(2.2241e-07 -0.00717858 -5.47565e-10)
(2.22518e-07 -0.00717858 -1.53387e-10)
(2.93667e-07 -0.00717993 7.53083e-11)
(2.94539e-07 -0.00717993 1.42452e-10)
(2.21272e-06 -0.0205607 -2.98481e-11)
(2.21291e-06 -0.0205607 7.08509e-11)
(2.35278e-06 -0.0205645 5.17513e-11)
(2.35303e-06 -0.0205646 -1.23744e-11)
(2.22631e-07 -0.00717857 -2.53525e-11)
(2.22659e-07 -0.00717858 7.34489e-11)
(2.94921e-07 -0.00717993 4.94319e-11)
(2.94961e-07 -0.00717993 -8.29834e-13)
(2.21281e-06 -0.0205607 1.72775e-10)
(2.21232e-06 -0.0205607 5.31139e-10)
(2.35249e-06 -0.0205646 -1.74204e-10)
(2.35069e-06 -0.0205646 -3.15866e-10)
(2.22594e-07 -0.00717858 1.99066e-10)
(2.22532e-07 -0.00717858 5.8555e-10)
(2.94652e-07 -0.00717993 -9.85511e-11)
(2.9385e-07 -0.00717993 -4.00353e-11)
(2.21219e-06 -0.0205607 1.8746e-09)
(2.21392e-06 -0.0205607 0.935813)
(2.34823e-06 -0.0205645 2.113e-09)
(2.35022e-06 -0.0205645 0.935994)
(2.23788e-07 -0.00717858 1.27961e-09)
(2.30061e-07 -0.00717856 0.923394)
(2.93638e-07 -0.00717992 1.77064e-09)
(3.00005e-07 -0.00717989 0.923571)
(2.73841e-06 -0.0205519 -0.935079)
(2.73475e-06 -0.0205519 -1.90548e-09)
(2.36173e-06 -0.0205566 -0.935275)
(2.35838e-06 -0.0205566 -1.97745e-09)
(2.52248e-07 -0.00717571 -0.92268)
(2.4383e-07 -0.00717572 -1.11202e-09)
(2.20316e-07 -0.00717721 -0.92287)
(2.12801e-07 -0.00717722 -1.24987e-09)
(2.73382e-06 -0.0205519 -9.64146e-10)
(2.734e-06 -0.0205519 -4.97577e-10)
(2.35757e-06 -0.0205566 -7.99013e-10)
(2.35797e-06 -0.0205566 -3.18133e-10)
(2.41477e-07 -0.00717572 -1.00948e-09)
(2.41313e-07 -0.00717572 -5.47091e-10)
(2.10772e-07 -0.00717722 -8.39934e-10)
(2.10719e-07 -0.00717721 -3.62965e-10)
(2.73423e-06 -0.0205519 -1.44174e-10)
(2.73432e-06 -0.0205519 1.855e-10)
(2.35829e-06 -0.0205566 -8.03731e-11)
(2.35842e-06 -0.0205566 1.21436e-10)
(2.41386e-07 -0.00717572 -1.50306e-10)
(2.41396e-07 -0.00717572 1.95549e-10)
(2.10804e-07 -0.00717721 -8.27156e-11)
(2.10822e-07 -0.00717721 1.29071e-10)
(2.73426e-06 -0.0205519 5.37142e-10)
(2.73422e-06 -0.0205519 9.99066e-10)
(2.35836e-06 -0.0205566 3.57444e-10)
(2.35818e-06 -0.0205566 8.32905e-10)
(2.4134e-07 -0.00717572 5.90143e-10)
(2.41524e-07 -0.00717572 1.04614e-09)
(2.10767e-07 -0.00717722 4.07544e-10)
(2.1085e-07 -0.00717722 8.76725e-10)
(2.73525e-06 -0.0205519 1.92761e-09)
(2.73897e-06 -0.0205519 0.935079)
(2.35915e-06 -0.0205566 1.99986e-09)
(2.36257e-06 -0.0205566 0.935275)
(2.43897e-07 -0.00717572 1.13722e-09)
(2.52301e-07 -0.00717571 0.92268)
(2.1291e-07 -0.00717722 1.27536e-09)
(2.20414e-07 -0.00717721 0.92287)
(3.98281e-06 -0.02054 -0.934316)
(3.9779e-06 -0.02054 -2.10533e-09)
(3.29277e-06 -0.0205465 -0.93451)
(3.28859e-06 -0.0205465 -1.95766e-09)
(3.88565e-07 -0.00717183 -0.921937)
(3.76752e-07 -0.00717183 -9.95845e-10)
(3.11486e-07 -0.00717395 -0.922125)
(3.01614e-07 -0.00717396 -1.02958e-09)
(3.97655e-06 -0.02054 -1.26442e-09)
(3.97638e-06 -0.02054 -8.10198e-10)
(3.28747e-06 -0.0205465 -1.12497e-09)
(3.28744e-06 -0.0205465 -6.65737e-10)
(3.73436e-07 -0.00717183 -1.3211e-09)
(3.73009e-07 -0.00717183 -8.65368e-10)
(2.98827e-07 -0.00717396 -1.16955e-09)
(2.98503e-07 -0.00717396 -7.15166e-10)
(3.97638e-06 -0.02054 -2.71409e-10)
(3.97641e-06 -0.02054 3.15521e-10)
(3.28755e-06 -0.0205465 -2.10049e-10)
(3.2876e-06 -0.0205465 2.52212e-10)
(3.73e-07 -0.00717183 -2.79121e-10)
(3.73002e-07 -0.00717183 3.24732e-10)
(2.98549e-07 -0.00717395 -2.197e-10)
(2.98554e-07 -0.00717395 2.64449e-10)
(3.97646e-06 -0.02054 8.52326e-10)
(3.97667e-06 -0.02054 1.30374e-09)
(3.28759e-06 -0.0205465 7.05661e-10)
(3.2877e-06 -0.0205465 1.16118e-09)
(3.73013e-07 -0.00717183 9.09072e-10)
(3.73445e-07 -0.00717184 1.3608e-09)
(2.98516e-07 -0.00717396 7.57942e-10)
(2.98849e-07 -0.00717396 1.20668e-09)
(3.97804e-06 -0.02054 2.12543e-09)
(3.98295e-06 -0.02054 0.934316)
(3.28889e-06 -0.0205465 1.98176e-09)
(3.29308e-06 -0.0205465 0.93451)
(3.76772e-07 -0.00717183 1.022e-09)
(3.88529e-07 -0.00717183 0.921937)
(3.01653e-07 -0.00717396 1.05834e-09)
(3.11484e-07 -0.00717395 0.922125)
(5.67988e-06 -0.0205232 -0.933525)
(5.67325e-06 -0.0205232 -2.51996e-09)
(4.78437e-06 -0.0205322 -0.933734)
(4.77866e-06 -0.0205322 -2.28653e-09)
(5.79117e-07 -0.00716626 -0.921166)
(5.62525e-07 -0.00716626 -9.67853e-10)
(4.78768e-07 -0.00716928 -0.921369)
(4.64713e-07 -0.00716928 -9.69015e-10)
(5.67148e-06 -0.0205232 -1.52822e-09)
(5.67113e-06 -0.0205232 -1.07195e-09)
(4.77711e-06 -0.0205322 -1.3958e-09)
(4.77685e-06 -0.0205322 -9.43847e-10)
(5.57981e-07 -0.00716626 -1.61935e-09)
(5.57343e-07 -0.00716626 -1.1422e-09)
(4.60822e-07 -0.00716928 -1.46902e-09)
(4.60291e-07 -0.00716928 -1.00547e-09)
(5.67097e-06 -0.0205232 -3.82377e-10)
(5.67097e-06 -0.0205232 4.28773e-10)
(4.77676e-06 -0.0205322 -3.27795e-10)
(4.77677e-06 -0.0205322 3.74006e-10)
(5.57249e-07 -0.00716626 -3.88969e-10)
(5.57249e-07 -0.00716626 4.35275e-10)
(4.60237e-07 -0.00716928 -3.34936e-10)
(4.60238e-07 -0.00716928 3.81422e-10)
(5.67113e-06 -0.0205232 1.11651e-09)
(5.67147e-06 -0.0205232 1.57192e-09)
(4.77688e-06 -0.0205322 9.87861e-10)
(4.77715e-06 -0.0205322 1.43822e-09)
(5.57338e-07 -0.00716626 1.18706e-09)
(5.57978e-07 -0.00716626 1.66193e-09)
(4.6029e-07 -0.00716928 1.05071e-09)
(4.60822e-07 -0.00716929 1.51023e-09)
(5.67323e-06 -0.0205232 2.53881e-09)
(5.67984e-06 -0.0205232 0.933525)
(4.7787e-06 -0.0205322 2.31135e-09)
(4.78438e-06 -0.0205322 0.933734)
(5.62532e-07 -0.00716626 9.95315e-10)
(5.79031e-07 -0.00716626 0.921166)
(4.64728e-07 -0.00716929 1.00321e-09)
(4.78681e-07 -0.00716928 0.921369)
(7.73774e-06 -0.0205005 -0.932712)
(7.729e-06 -0.0205005 -3.05646e-09)
(6.66467e-06 -0.0205126 -0.932919)
(6.65704e-06 -0.0205126 -2.76656e-09)
(8.07298e-07 -0.00715862 -0.920373)
(7.84906e-07 -0.00715863 -9.70387e-10)
(6.8863e-07 -0.00716272 -0.920575)
(6.69276e-07 -0.00716272 -9.60115e-10)
(7.72674e-06 -0.0205005 -1.80372e-09)
(7.72626e-06 -0.0205005 -1.3233e-09)
(6.65504e-06 -0.0205126 -1.66374e-09)
(6.65462e-06 -0.0205126 -1.19788e-09)
(7.78888e-07 -0.00715863 -1.93815e-09)
(7.78012e-07 -0.00715862 -1.41374e-09)
(6.64035e-07 -0.00716272 -1.77572e-09)
(6.63278e-07 -0.00716272 -1.27695e-09)
(7.72599e-06 -0.0205005 -4.88227e-10)
(7.72598e-06 -0.0205005 5.31547e-10)
(6.6544e-06 -0.0205126 -4.35419e-10)
(6.6544e-06 -0.0205126 4.80048e-10)
(7.77856e-07 -0.00715862 -4.95249e-10)
(7.77856e-07 -0.00715862 5.38525e-10)
(6.63153e-07 -0.00716272 -4.42422e-10)
(6.63153e-07 -0.00716272 4.86774e-10)
(7.72623e-06 -0.0205005 1.3653e-09)
(7.72669e-06 -0.0205005 1.84666e-09)
(6.6546e-06 -0.0205126 1.24055e-09)
(6.655e-06 -0.0205126 1.70645e-09)
(7.78007e-07 -0.00715862 1.45611e-09)
(7.78884e-07 -0.00715863 1.9796e-09)
(6.63272e-07 -0.00716272 1.32061e-09)
(6.64028e-07 -0.00716272 1.81636e-09)
(7.72893e-06 -0.0205005 3.07699e-09)
(7.73763e-06 -0.0205005 0.932712)
(6.65698e-06 -0.0205126 2.79205e-09)
(6.66456e-06 -0.0205126 0.932919)
(7.84914e-07 -0.00715863 9.97808e-10)
(8.07217e-07 -0.00715862 0.920373)
(6.69286e-07 -0.00716272 9.94674e-10)
(6.88522e-07 -0.00716272 0.920575)
(1.01776e-05 -0.0204709 -0.931859)
(1.01664e-05 -0.0204709 -3.70707e-09)
(8.90643e-06 -0.0204866 -0.932073)
(8.89649e-06 -0.0204866 -3.35972e-09)
(1.07566e-06 -0.0071486 -0.919542)
(1.04637e-06 -0.0071486 -9.85312e-10)
(9.35913e-07 -0.00715393 -0.91975)
(9.1023e-07 -0.00715393 -9.70773e-10)
(1.01636e-05 -0.0204709 -2.10249e-09)
(1.0163e-05 -0.0204709 -1.58046e-09)
(8.89397e-06 -0.0204866 -1.94971e-09)
(8.89343e-06 -0.0204866 -1.45015e-09)
(1.03862e-06 -0.0071486 -2.28892e-09)
(1.03747e-06 -0.0071486 -1.69592e-09)
(9.03391e-07 -0.00715393 -2.10922e-09)
(9.02382e-07 -0.00715393 -1.55172e-09)
(1.01626e-05 -0.0204709 -5.9177e-10)
(1.01626e-05 -0.0204709 6.40138e-10)
(8.89312e-06 -0.0204866 -5.39393e-10)
(8.89311e-06 -0.0204866 5.84197e-10)
(1.03726e-06 -0.0071486 -6.00712e-10)
(1.03726e-06 -0.0071486 6.48254e-10)
(9.02199e-07 -0.00715393 -5.47653e-10)
(9.022e-07 -0.00715393 5.92006e-10)
(1.01629e-05 -0.0204709 1.62714e-09)
(1.01635e-05 -0.0204709 2.15036e-09)
(8.89341e-06 -0.0204866 1.49309e-09)
(8.89393e-06 -0.0204866 1.99362e-09)
(1.03747e-06 -0.0071486 1.74257e-09)
(1.03862e-06 -0.0071486 2.33471e-09)
(9.0238e-07 -0.00715393 1.59587e-09)
(9.03388e-07 -0.00715393 2.15077e-09)
(1.01663e-05 -0.0204709 3.72682e-09)
(1.01775e-05 -0.0204709 0.931859)
(8.89642e-06 -0.0204866 3.38564e-09)
(8.90629e-06 -0.0204866 0.932073)
(1.04638e-06 -0.0071486 1.01434e-09)
(1.07556e-06 -0.0071486 0.919542)
(9.10249e-07 -0.00715393 1.00579e-09)
(9.35805e-07 -0.00715393 0.91975)
(1.30785e-05 -0.0204334 -0.930985)
(1.30643e-05 -0.0204334 -4.46144e-09)
(1.15651e-05 -0.0204532 -0.931215)
(1.15524e-05 -0.0204532 -4.06132e-09)
(1.39444e-06 -0.00713582 -0.91869)
(1.357e-06 -0.00713582 -9.90977e-10)
(1.22798e-06 -0.00714258 -0.918915)
(1.1948e-06 -0.00714258 -9.8238e-10)
(1.30608e-05 -0.0204334 -2.43578e-09)
(1.30601e-05 -0.0204334 -1.86223e-09)
(1.15493e-05 -0.0204532 -2.26432e-09)
(1.15486e-05 -0.0204532 -1.7175e-09)
(1.34721e-06 -0.00713582 -2.6847e-09)
(1.34575e-06 -0.00713581 -2.00742e-09)
(1.18609e-06 -0.00714258 -2.48109e-09)
(1.18479e-06 -0.00714257 -1.84653e-09)
(1.30596e-05 -0.0204334 -7.04596e-10)
(1.30596e-05 -0.0204334 7.56381e-10)
(1.15482e-05 -0.0204532 -6.46118e-10)
(1.15482e-05 -0.0204532 6.96674e-10)
(1.34547e-06 -0.00713581 -7.15948e-10)
(1.34548e-06 -0.00713581 7.66828e-10)
(1.18454e-06 -0.00714257 -6.56911e-10)
(1.18455e-06 -0.00714257 7.06076e-10)
(1.30601e-05 -0.0204334 1.91224e-09)
(1.30608e-05 -0.0204334 2.48792e-09)
(1.15486e-05 -0.0204532 1.76593e-09)
(1.15492e-05 -0.0204532 2.31425e-09)
(1.34575e-06 -0.00713582 2.05734e-09)
(1.34721e-06 -0.00713582 2.73392e-09)
(1.18478e-06 -0.00714257 1.89569e-09)
(1.18608e-06 -0.00714258 2.52744e-09)
(1.30642e-05 -0.0204334 4.48156e-09)
(1.30784e-05 -0.0204334 0.930985)
(1.15523e-05 -0.0204532 4.0886e-09)
(1.15649e-05 -0.0204532 0.931215)
(1.35702e-06 -0.00713582 1.02136e-09)
(1.39433e-06 -0.00713582 0.91869)
(1.19483e-06 -0.00714258 1.02117e-09)
(1.22785e-06 -0.00714258 0.918915)
(1.65406e-05 -0.0203867 -0.930065)
(1.65228e-05 -0.0203867 -5.32897e-09)
(1.47334e-05 -0.0204113 -0.930302)
(1.47175e-05 -0.0204113 -4.86853e-09)
(1.77601e-06 -0.00711984 -0.917794)
(1.7289e-06 -0.00711985 -9.73955e-10)
(1.57654e-06 -0.00712826 -0.918025)
(1.53448e-06 -0.00712826 -9.76543e-10)
(1.65186e-05 -0.0203867 -2.81122e-09)
(1.65177e-05 -0.0203867 -2.17697e-09)
(1.47136e-05 -0.0204113 -2.61795e-09)
(1.47128e-05 -0.0204113 -2.01529e-09)
(1.71669e-06 -0.00711984 -3.13501e-09)
(1.71486e-06 -0.00711984 -2.35722e-09)
(1.52355e-06 -0.00712826 -2.90292e-09)
(1.52191e-06 -0.00712825 -2.17614e-09)
(1.65172e-05 -0.0203867 -8.30816e-10)
(1.65172e-05 -0.0203867 8.82233e-10)
(1.47124e-05 -0.0204113 -7.65275e-10)
(1.47124e-05 -0.0204113 8.17731e-10)
(1.71452e-06 -0.00711983 -8.45108e-10)
(1.71452e-06 -0.00711983 8.96238e-10)
(1.5216e-06 -0.00712825 -7.78601e-10)
(1.5216e-06 -0.00712825 8.30144e-10)
(1.65177e-05 -0.0203867 2.22627e-09)
(1.65186e-05 -0.0203867 2.86323e-09)
(1.47128e-05 -0.0204113 2.06527e-09)
(1.47136e-05 -0.0204113 2.67007e-09)
(1.71486e-06 -0.00711984 2.40703e-09)
(1.71669e-06 -0.00711984 3.18369e-09)
(1.5219e-06 -0.00712825 2.22741e-09)
(1.52354e-06 -0.00712826 2.95068e-09)
(1.65228e-05 -0.0203867 5.34821e-09)
(1.65405e-05 -0.0203867 0.930065)
(1.47174e-05 -0.0204113 4.89658e-09)
(1.47332e-05 -0.0204113 0.930302)
(1.7289e-06 -0.00711985 1.00362e-09)
(1.77587e-06 -0.00711984 0.917794)
(1.5345e-06 -0.00712826 1.01675e-09)
(1.57639e-06 -0.00712826 0.918025)
(2.06771e-05 -0.0203294 -0.929123)
(2.06551e-05 -0.0203294 -6.33763e-09)
(1.8518e-05 -0.0203595 -0.929379)
(1.84983e-05 -0.0203595 -5.80017e-09)
(2.23366e-06 -0.00710013 -0.916876)
(2.17511e-06 -0.00710014 -9.39482e-10)
(1.99444e-06 -0.00711049 -0.917126)
(1.94186e-06 -0.00711049 -9.47753e-10)
(2.065e-05 -0.0203293 -3.24205e-09)
(2.06489e-05 -0.0203293 -2.52948e-09)
(1.84936e-05 -0.0203595 -3.01787e-09)
(1.84927e-05 -0.0203595 -2.34758e-09)
(2.16006e-06 -0.00710013 -3.65555e-09)
(2.15779e-06 -0.00710012 -2.7528e-09)
(1.92831e-06 -0.00711049 -3.38519e-09)
(1.92626e-06 -0.00711048 -2.54737e-09)
(2.06483e-05 -0.0203293 -9.73173e-10)
(2.06483e-05 -0.0203293 1.01654e-09)
(1.84921e-05 -0.0203594 -8.98831e-10)
(1.84921e-05 -0.0203594 9.47825e-10)
(2.15737e-06 -0.00710012 -9.92085e-10)
(2.15736e-06 -0.00710012 1.03502e-09)
(1.92588e-06 -0.00711048 -9.16225e-10)
(1.92588e-06 -0.00711048 9.64057e-10)
(2.06489e-05 -0.0203293 2.57041e-09)
(2.06499e-05 -0.0203293 3.28409e-09)
(1.84926e-05 -0.0203595 2.39373e-09)
(1.84936e-05 -0.0203595 3.06591e-09)
(2.15778e-06 -0.00710012 2.79428e-09)
(2.16004e-06 -0.00710013 3.69445e-09)
(1.92625e-06 -0.00711048 2.59483e-09)
(1.92829e-06 -0.00711049 3.42801e-09)
(2.0655e-05 -0.0203294 6.36102e-09)
(2.06769e-05 -0.0203294 0.929123)
(1.84982e-05 -0.0203595 5.82712e-09)
(1.85179e-05 -0.0203595 0.929379)
(2.17511e-06 -0.00710014 9.67808e-10)
(2.23358e-06 -0.00710014 0.916876)
(1.94187e-06 -0.00711049 9.84512e-10)
(1.9943e-06 -0.00711049 0.917126)
(2.56066e-05 -0.0202596 -0.928145)
(2.55797e-05 -0.0202596 -7.58192e-09)
(2.30357e-05 -0.0202961 -0.928397)
(2.30114e-05 -0.0202961 -6.91325e-09)
(2.78109e-06 -0.00707608 -0.915923)
(2.70901e-06 -0.00707608 -9.48124e-10)
(2.49519e-06 -0.00708869 -0.916169)
(2.43018e-06 -0.00708869 -9.31238e-10)
(2.55735e-05 -0.0202596 -3.74648e-09)
(2.55723e-05 -0.0202596 -2.92441e-09)
(2.30058e-05 -0.0202961 -3.48456e-09)
(2.30047e-05 -0.0202961 -2.72212e-09)
(2.69059e-06 -0.00707608 -4.26506e-09)
(2.68782e-06 -0.00707607 -3.19907e-09)
(2.41352e-06 -0.00708869 -3.94863e-09)
(2.41101e-06 -0.00708868 -2.96905e-09)
(2.55716e-05 -0.0202595 -1.12823e-09)
(2.55716e-05 -0.0202595 1.17238e-09)
(2.3004e-05 -0.0202961 -1.05009e-09)
(2.3004e-05 -0.0202961 1.08817e-09)
(2.68732e-06 -0.00707606 -1.15252e-09)
(2.68732e-06 -0.00707606 1.19684e-09)
(2.41055e-06 -0.00708867 -1.07254e-09)
(2.41055e-06 -0.00708867 1.11024e-09)
(2.55723e-05 -0.0202596 2.96574e-09)
(2.55735e-05 -0.0202596 3.78407e-09)
(2.30047e-05 -0.0202961 2.75754e-09)
(2.30057e-05 -0.0202961 3.51927e-09)
(2.68781e-06 -0.00707607 3.24168e-09)
(2.69059e-06 -0.00707608 4.30154e-09)
(2.411e-06 -0.00708868 3.00699e-09)
(2.41351e-06 -0.00708869 3.98023e-09)
(2.55797e-05 -0.0202596 7.61681e-09)
(2.56065e-05 -0.0202596 0.928145)
(2.30114e-05 -0.0202961 6.94199e-09)
(2.30356e-05 -0.0202961 0.928397)
(2.70904e-06 -0.00707608 9.78899e-10)
(2.78114e-06 -0.00707608 0.915923)
(2.43019e-06 -0.00708869 9.57468e-10)
(2.49516e-06 -0.00708869 0.916169)
(3.14591e-05 -0.0201754 -0.927131)
(3.14264e-05 -0.0201754 -9.14114e-09)
(2.84103e-05 -0.0202194 -0.927406)
(2.83806e-05 -0.0202194 -8.31535e-09)
(3.43345e-06 -0.00704697 -0.914935)
(3.3453e-06 -0.00704697 -1.02856e-09)
(3.09315e-06 -0.0070622 -0.915204)
(3.01341e-06 -0.0070622 -9.82274e-10)
(3.1419e-05 -0.0201754 -4.30763e-09)
(3.14176e-05 -0.0201754 -3.3551e-09)
(2.83739e-05 -0.0202194 -4.02173e-09)
(2.83726e-05 -0.0202194 -3.13535e-09)
(3.32294e-06 -0.00704696 -4.95076e-09)
(3.31959e-06 -0.00704695 -3.6895e-09)
(2.99311e-06 -0.00706219 -4.59898e-09)
(2.99005e-06 -0.00706218 -3.43737e-09)
(3.14168e-05 -0.0201754 -1.28391e-09)
(3.14168e-05 -0.0201754 1.37343e-09)
(2.83718e-05 -0.0202194 -1.20538e-09)
(2.83718e-05 -0.0202194 1.26553e-09)
(3.319e-06 -0.00704694 -1.31526e-09)
(3.31901e-06 -0.00704694 1.40312e-09)
(2.98951e-06 -0.00706218 -1.23403e-09)
(2.98952e-06 -0.00706218 1.29373e-09)
(3.14176e-05 -0.0201754 3.44041e-09)
(3.14189e-05 -0.0201754 4.3835e-09)
(2.83726e-05 -0.0202194 3.19184e-09)
(2.83738e-05 -0.0202194 4.07142e-09)
(3.31961e-06 -0.00704695 3.77483e-09)
(3.32298e-06 -0.00704696 5.0265e-09)
(2.99005e-06 -0.00706218 3.49709e-09)
(2.99312e-06 -0.00706219 4.64845e-09)
(3.14264e-05 -0.0201754 9.18054e-09)
(3.1459e-05 -0.0201754 0.927131)
(2.83806e-05 -0.0202194 8.35183e-09)
(2.84102e-05 -0.0202194 0.927406)
(3.34542e-06 -0.00704697 1.07381e-09)
(3.43354e-06 -0.00704697 0.914935)
(3.01349e-06 -0.0070622 1.01381e-09)
(3.09325e-06 -0.0070622 0.915204)
(3.83675e-05 -0.0200747 -0.926077)
(3.83282e-05 -0.0200746 -1.09119e-08)
(3.47737e-05 -0.0201272 -0.92635)
(3.47379e-05 -0.0201272 -9.99204e-09)
(4.20653e-06 -0.00701202 -0.913908)
(4.09936e-06 -0.00701201 -1.05194e-09)
(3.80373e-06 -0.00703027 -0.914174)
(3.7065e-06 -0.00703027 -1.04547e-09)
(3.83193e-05 -0.0200746 -4.87958e-09)
(3.83177e-05 -0.0200746 -3.83185e-09)
(3.47297e-05 -0.0201272 -4.59284e-09)
(3.47282e-05 -0.0201272 -3.5851e-09)
(4.07242e-06 -0.007012 -5.67522e-09)
(4.06837e-06 -0.00701199 -4.23285e-09)
(3.68196e-06 -0.00703026 -5.30831e-09)
(3.67827e-06 -0.00703025 -3.95059e-09)
(3.83167e-05 -0.0200746 -1.45937e-09)
(3.83167e-05 -0.0200746 1.6039e-09)
(3.47273e-05 -0.0201272 -1.36546e-09)
(3.47273e-05 -0.0201272 1.4862e-09)
(4.06766e-06 -0.00701199 -1.49854e-09)
(4.06767e-06 -0.00701199 1.6386e-09)
(3.67763e-06 -0.00703024 -1.4023e-09)
(3.67764e-06 -0.00703024 1.51907e-09)
(3.83176e-05 -0.0200746 3.97165e-09)
(3.83192e-05 -0.0200746 5.01978e-09)
(3.47282e-05 -0.0201272 3.70112e-09)
(3.47297e-05 -0.0201272 4.702e-09)
(4.06838e-06 -0.00701199 4.37165e-09)
(4.07245e-06 -0.007012 5.81298e-09)
(3.67829e-06 -0.00703025 4.06768e-09)
(3.682e-06 -0.00703026 5.41603e-09)
(3.8328e-05 -0.0200746 1.09266e-08)
(3.83672e-05 -0.0200747 0.926077)
(3.47378e-05 -0.0201272 1.00415e-08)
(3.47735e-05 -0.0201273 0.92635)
(4.09947e-06 -0.00701202 1.11245e-09)
(4.20622e-06 -0.00701202 0.913908)
(3.70664e-06 -0.00703027 1.12056e-09)
(3.80363e-06 -0.00703027 0.914174)
(4.6474e-05 -0.0199548 -0.925004)
(4.6427e-05 -0.0199548 -1.2629e-08)
(4.22632e-05 -0.0200173 -0.925272)
(4.22201e-05 -0.0200173 -1.17506e-08)
(5.11652e-06 -0.00697034 -0.912863)
(4.98723e-06 -0.00697034 -7.66261e-10)
(4.64312e-06 -0.00699207 -0.913124)
(4.52524e-06 -0.00699207 -9.14162e-10)
(4.64164e-05 -0.0199548 -5.45645e-09)
(4.64145e-05 -0.0199548 -4.389e-09)
(4.22104e-05 -0.0200172 -5.1625e-09)
(4.22087e-05 -0.0200172 -4.09577e-09)
(4.95501e-06 -0.00697032 -6.43909e-09)
(4.95008e-06 -0.00697031 -4.86204e-09)
(4.49579e-06 -0.00699206 -6.05184e-09)
(4.49132e-06 -0.00699205 -4.53098e-09)
(4.64133e-05 -0.0199547 -1.69833e-09)
(4.64133e-05 -0.0199547 1.81785e-09)
(4.22076e-05 -0.0200172 -1.56468e-09)
(4.22076e-05 -0.0200172 1.71781e-09)
(4.94918e-06 -0.0069703 -1.74231e-09)
(4.94917e-06 -0.0069703 1.86251e-09)
(4.49053e-06 -0.00699204 -1.609e-09)
(4.49053e-06 -0.00699204 1.75652e-09)
(4.64145e-05 -0.0199548 4.50572e-09)
(4.64164e-05 -0.0199548 5.6038e-09)
(4.22087e-05 -0.0200172 4.24481e-09)
(4.22104e-05 -0.0200172 5.32587e-09)
(4.95003e-06 -0.00697031 4.98364e-09)
(4.95492e-06 -0.00697032 6.57544e-09)
(4.49131e-06 -0.00699205 4.68081e-09)
(4.49578e-06 -0.00699206 6.20189e-09)
(4.64268e-05 -0.0199548 1.26052e-08)
(4.64736e-05 -0.0199549 0.925004)
(4.22199e-05 -0.0200173 1.17975e-08)
(4.22627e-05 -0.0200173 0.925272)
(4.98715e-06 -0.00697034 8.19564e-10)
(5.11559e-06 -0.00697034 0.912863)
(4.5253e-06 -0.00699207 1.04528e-09)
(4.64231e-06 -0.00699208 0.913124)
(5.59204e-05 -0.0198133 -0.923858)
(5.58645e-05 -0.0198133 -1.42087e-08)
(5.10228e-05 -0.0198869 -0.924153)
(5.09715e-05 -0.0198869 -1.33749e-08)
(6.17781e-06 -0.00692098 -0.911746)
(6.02366e-06 -0.00692097 -1.31833e-10)
(5.62692e-06 -0.00694667 -0.912034)
(5.48551e-06 -0.00694667 -4.35976e-10)
(5.58522e-05 -0.0198132 -6.10826e-09)
(5.58499e-05 -0.0198132 -5.03723e-09)
(5.09602e-05 -0.0198869 -5.76917e-09)
(5.0958e-05 -0.0198869 -4.70245e-09)
(5.98534e-06 -0.00692096 -7.30455e-09)
(5.97938e-06 -0.00692094 -5.59527e-09)
(5.45038e-06 -0.00694666 -6.8612e-09)
(5.44495e-06 -0.00694664 -5.21452e-09)
(5.58484e-05 -0.0198132 -2.00842e-09)
(5.58484e-05 -0.0198132 2.00228e-09)
(5.09567e-05 -0.0198868 -1.84609e-09)
(5.09567e-05 -0.0198868 1.908e-09)
(5.97827e-06 -0.00692093 -2.05789e-09)
(5.97826e-06 -0.00692093 2.06124e-09)
(5.44395e-06 -0.00694663 -1.89484e-09)
(5.44394e-06 -0.00694663 1.95929e-09)
(5.58498e-05 -0.0198132 5.0332e-09)
(5.58522e-05 -0.0198133 6.1445e-09)
(5.0958e-05 -0.0198869 4.7624e-09)
(5.09601e-05 -0.0198869 5.86695e-09)
(5.97932e-06 -0.00692094 5.60298e-09)
(5.98522e-06 -0.00692096 7.32631e-09)
(5.44489e-06 -0.00694664 5.28323e-09)
(5.45027e-06 -0.00694666 6.93369e-09)
(5.58644e-05 -0.0198133 1.4217e-08)
(5.59201e-05 -0.0198133 0.923858)
(5.09713e-05 -0.0198869 1.33979e-08)
(5.10224e-05 -0.019887 0.924153)
(6.02349e-06 -0.00692097 1.51536e-10)
(6.17726e-06 -0.00692097 0.911746)
(5.4854e-06 -0.00694667 5.22795e-10)
(5.62592e-06 -0.00694667 0.912034)
(6.68463e-05 -0.0196472 -0.922689)
(6.67805e-05 -0.0196472 -1.61718e-08)
(6.11911e-05 -0.0197335 -0.922991)
(6.11305e-05 -0.0197335 -1.51074e-08)
(7.40629e-06 -0.00686289 -0.910607)
(7.22379e-06 -0.00686289 4.67089e-10)
(6.76979e-06 -0.00689308 -0.910902)
(6.60201e-06 -0.00689308 1.80792e-10)
(6.67662e-05 -0.0196471 -6.8892e-09)
(6.67633e-05 -0.0196471 -5.7351e-09)
(6.11172e-05 -0.0197334 -6.4877e-09)
(6.11146e-05 -0.0197334 -5.38504e-09)
(7.17853e-06 -0.00686287 -8.31289e-09)
(7.17143e-06 -0.00686285 -6.39368e-09)
(6.56034e-06 -0.00689306 -7.79327e-09)
(6.55382e-06 -0.00689305 -5.98826e-09)
(6.67615e-05 -0.0196471 -2.29716e-09)
(6.67615e-05 -0.0196471 2.28716e-09)
(6.1113e-05 -0.0197334 -2.16357e-09)
(6.1113e-05 -0.0197334 2.11709e-09)
(7.17013e-06 -0.00686284 -2.36184e-09)
(7.17015e-06 -0.00686284 2.35107e-09)
(6.55261e-06 -0.00689304 -2.21961e-09)
(6.55262e-06 -0.00689304 2.18397e-09)
(6.67633e-05 -0.0196471 5.7243e-09)
(6.67662e-05 -0.0196471 6.86564e-09)
(6.11146e-05 -0.0197334 5.3401e-09)
(6.11172e-05 -0.0197334 6.46056e-09)
(7.17149e-06 -0.00686285 6.38375e-09)
(7.17861e-06 -0.00686287 8.28749e-09)
(6.5538e-06 -0.00689305 5.95951e-09)
(6.5603e-06 -0.00689306 7.75857e-09)
(6.67805e-05 -0.0196472 1.62406e-08)
(6.68464e-05 -0.0196472 0.922689)
(6.11304e-05 -0.0197335 1.51232e-08)
(6.1191e-05 -0.0197335 0.922991)
(7.22392e-06 -0.00686289 -4.5329e-10)
(7.40684e-06 -0.00686289 0.910607)
(6.60196e-06 -0.00689308 -2.03518e-10)
(6.76983e-06 -0.00689308 0.910902)
(7.93894e-05 -0.0194535 -0.921479)
(7.93122e-05 -0.0194534 -1.88452e-08)
(7.29092e-05 -0.019554 -0.921791)
(7.2838e-05 -0.0195539 -1.74361e-08)
(8.81945e-06 -0.00679499 -0.909428)
(8.60386e-06 -0.00679498 8.26278e-10)
(8.08863e-06 -0.00683023 -0.909733)
(7.89029e-06 -0.00683022 6.44589e-10)
(7.92954e-05 -0.0194534 -7.7619e-09)
(7.92919e-05 -0.0194534 -6.4891e-09)
(7.28224e-05 -0.0195539 -7.31373e-09)
(7.28193e-05 -0.0195538 -6.09999e-09)
(8.55067e-06 -0.00679496 -9.44431e-09)
(8.54227e-06 -0.00679494 -7.25615e-09)
(7.8412e-06 -0.0068302 -8.85479e-09)
(7.83345e-06 -0.00683019 -6.80937e-09)
(7.92897e-05 -0.0194533 -2.55341e-09)
(7.92897e-05 -0.0194533 2.70651e-09)
(7.28173e-05 -0.0195538 -2.4223e-09)
(7.28173e-05 -0.0195538 2.48666e-09)
(8.54071e-06 -0.00679493 -2.63331e-09)
(8.54073e-06 -0.00679493 2.77449e-09)
(7.83203e-06 -0.00683017 -2.49574e-09)
(7.83205e-06 -0.00683017 2.55529e-09)
(7.92919e-05 -0.0194534 6.62895e-09)
(7.92954e-05 -0.0194534 7.84003e-09)
(7.28193e-05 -0.0195539 6.16099e-09)
(7.28224e-05 -0.0195539 7.33095e-09)
(8.54231e-06 -0.00679494 7.38545e-09)
(8.55074e-06 -0.00679497 9.53278e-09)
(7.8335e-06 -0.00683019 6.86884e-09)
(7.84126e-06 -0.00683021 8.88557e-09)
(7.93122e-05 -0.0194534 1.88818e-08)
(7.93895e-05 -0.0194535 0.921479)
(7.2838e-05 -0.0195539 1.74733e-08)
(7.29093e-05 -0.019554 0.921791)
(8.604e-06 -0.00679499 -7.90119e-10)
(8.81981e-06 -0.00679499 0.909428)
(7.89043e-06 -0.00683022 -6.54107e-10)
(8.08932e-06 -0.00683023 0.909733)
(9.36749e-05 -0.019229 -0.920225)
(9.35845e-05 -0.0192289 -2.18203e-08)
(8.6309e-05 -0.0193453 -0.92055)
(8.62254e-05 -0.0193452 -2.02859e-08)
(1.04305e-05 -0.00671614 -0.908206)
(1.01773e-05 -0.00671614 1.2469e-09)
(9.59916e-06 -0.006757 -0.908523)
(9.36518e-06 -0.00675699 1.0441e-09)
(9.35648e-05 -0.0192289 -8.72839e-09)
(9.35607e-05 -0.0192288 -7.36877e-09)
(8.62072e-05 -0.0193452 -8.21398e-09)
(8.62034e-05 -0.0193451 -6.90034e-09)
(1.01151e-05 -0.00671611 -1.07258e-08)
(1.01051e-05 -0.00671609 -8.26186e-09)
(9.30763e-06 -0.00675697 -1.00519e-08)
(9.29848e-06 -0.00675695 -7.72897e-09)
(9.35581e-05 -0.0192288 -2.91385e-09)
(9.35581e-05 -0.0192288 3.06422e-09)
(8.6201e-05 -0.0193451 -2.70661e-09)
(8.6201e-05 -0.0193451 2.90637e-09)
(1.01033e-05 -0.00671608 -3.00283e-09)
(1.01032e-05 -0.00671608 3.15455e-09)
(9.29677e-06 -0.00675694 -2.79675e-09)
(9.29677e-06 -0.00675694 2.98033e-09)
(9.35607e-05 -0.0192288 7.50529e-09)
(9.35648e-05 -0.0192289 8.84293e-09)
(8.62034e-05 -0.0193451 7.08678e-09)
(8.62071e-05 -0.0193452 8.3529e-09)
(1.0105e-05 -0.00671609 8.40285e-09)
(1.01149e-05 -0.00671612 1.08392e-08)
(9.29845e-06 -0.00675695 7.90208e-09)
(9.30757e-06 -0.00675697 1.01833e-08)
(9.35845e-05 -0.0192289 2.18096e-08)
(9.36748e-05 -0.019229 0.920225)
(8.62253e-05 -0.0193452 2.03233e-08)
(8.63089e-05 -0.0193453 0.92055)
(1.0177e-05 -0.00671614 -1.21682e-09)
(1.04299e-05 -0.00671614 0.908206)
(9.36516e-06 -0.00675699 -9.69802e-10)
(9.59891e-06 -0.006757 0.908523)
(0.000109805 -0.0189705 -0.918917)
(0.0001097 -0.0189704 -2.49303e-08)
(0.000101506 -0.0191042 -0.919246)
(0.000101408 -0.0191041 -2.3299e-08)
(1.22477e-05 -0.00662519 -0.906931)
(1.19533e-05 -0.00662519 1.81027e-09)
(1.1312e-05 -0.00667224 -0.907252)
(1.10386e-05 -0.00667224 1.54202e-09)
(0.000109677 -0.0189704 -9.89405e-09)
(0.000109672 -0.0189703 -8.395e-09)
(0.000101387 -0.0191041 -9.27751e-09)
(0.000101382 -0.019104 -7.86422e-09)
(1.1881e-05 -0.00662516 -1.22397e-08)
(1.18694e-05 -0.00662514 -9.43985e-09)
(1.09715e-05 -0.00667222 -1.14526e-08)
(1.09608e-05 -0.00667219 -8.82988e-09)
(0.000109669 -0.0189703 -3.38582e-09)
(0.000109669 -0.0189703 3.35961e-09)
(0.00010138 -0.019104 -3.1425e-09)
(0.00010138 -0.019104 3.2021e-09)
(1.18673e-05 -0.00662512 -3.49233e-09)
(1.18673e-05 -0.00662512 3.47176e-09)
(1.09588e-05 -0.00667218 -3.24273e-09)
(1.09588e-05 -0.00667218 3.30598e-09)
(0.000109672 -0.0189703 8.36931e-09)
(0.000109677 -0.0189704 9.87752e-09)
(0.000101382 -0.019104 7.91455e-09)
(0.000101387 -0.0191041 9.33305e-09)
(1.18694e-05 -0.00662513 9.42289e-09)
(1.18809e-05 -0.00662516 1.221e-08)
(1.09607e-05 -0.00667219 8.89316e-09)
(1.09714e-05 -0.00667222 1.14886e-08)
(0.0001097 -0.0189704 2.49772e-08)
(0.000109805 -0.0189705 0.918917)
(0.000101408 -0.0191041 2.33134e-08)
(0.000101505 -0.0191042 0.919246)
(1.19532e-05 -0.00662519 -1.81822e-09)
(1.22479e-05 -0.00662519 0.906931)
(1.10385e-05 -0.00667224 -1.53306e-09)
(1.13117e-05 -0.00667224 0.907252)
(0.000127862 -0.0186748 -0.917569)
(0.00012774 -0.0186747 -2.87106e-08)
(0.000118591 -0.0188275 -0.917916)
(0.000118478 -0.0188274 -2.67264e-08)
(1.42812e-05 -0.00652095 -0.905617)
(1.39407e-05 -0.00652094 2.2105e-09)
(1.32364e-05 -0.00657479 -0.905956)
(1.29197e-05 -0.00657479 2.00146e-09)
(0.000127714 -0.0186747 -1.1232e-08)
(0.000127708 -0.0186746 -9.49115e-09)
(0.000118453 -0.0188273 -1.05477e-08)
(0.000118448 -0.0188273 -8.95253e-09)
(1.38572e-05 -0.00652092 -1.39276e-08)
(1.38439e-05 -0.00652089 -1.07031e-08)
(1.2842e-05 -0.00657476 -1.30649e-08)
(1.28295e-05 -0.00657473 -1.00638e-08)
(0.000127704 -0.0186746 -3.82829e-09)
(0.000127704 -0.0186746 3.80382e-09)
(0.000118444 -0.0188273 -3.61988e-09)
(0.000118444 -0.0188273 3.55079e-09)
(1.38415e-05 -0.00652087 -3.95652e-09)
(1.38415e-05 -0.00652087 3.92919e-09)
(1.28272e-05 -0.00657472 -3.7343e-09)
(1.28272e-05 -0.00657472 3.67624e-09)
(0.000127708 -0.0186746 9.4834e-09)
(0.000127714 -0.0186747 1.11796e-08)
(0.000118448 -0.0188273 8.88421e-09)
(0.000118453 -0.0188273 1.04903e-08)
(1.3844e-05 -0.00652089 1.06863e-08)
(1.38573e-05 -0.00652092 1.38956e-08)