/*--------------------------------*- C++ -*----------------------------------*\
  =========                 |
  \\      /  F ield         | OpenFOAM: The Open Source CFD Toolbox
   \\    /   O peration     | Website:  https://openfoam.org
    \\  /    A nd           | Version:  9
     \\/     M anipulation  |
\*---------------------------------------------------------------------------*/
FoamFile
{
    format      ascii;
    class       surfaceScalarField;
    location    "2.5";
    object      phi;
}
// * * * * * * * * * * * * * * * * * * * * * * * * * * * * * * * * * * * * * //

dimensions      [0 3 -1 0 0 0 0];

internalField   nonuniform List<scalar> 
104044
(
4.84469e-07
-6.59546e-05
-1.27956e-06
6.48147e-05
1.93495e-06
-4.55209e-05
-2.39485e-06
-1.8118e-07
4.80038e-05
5.77582e-07
2.6442e-07
-2.22208e-06
2.46554e-06
-1.90837e-06
-1.03903e-07
1.86989e-07
-1.45345e-09
-7.17834e-05
7.05053e-05
-4.13032e-05
1.64221e-08
3.88905e-05
3.07638e-08
-1.58453e-08
-9.71591e-09
-5.12611e-05
-2.51797e-06
5.17584e-05
1.84922e-06
-5.36262e-05
-9.11068e-07
-1.79751e-10
5.39985e-05
5.29246e-07
-5.31113e-09
-1.97489e-06
1.12322e-06
-1.10467e-06
1.0384e-10
3.30043e-07
-6.11556e-09
-5.4664e-05
5.21685e-05
-5.62324e-05
-3.69076e-09
5.53189e-05
-7.39396e-09
-1.47118e-09
3.75889e-12
-5.43955e-05
-5.02011e-07
5.48718e-05
2.55688e-08
-5.43954e-05
-5.01998e-07
1.90563e-10
5.48717e-05
2.55447e-08
1.85469e-12
-1.0374e-06
1.99264e-07
-1.03734e-06
-1.00857e-10
1.99202e-07
7.98061e-12
-5.54142e-05
5.49085e-05
-5.54143e-05
3.70002e-09
5.49086e-05
2.98735e-12
1.47916e-09
9.72974e-09
-5.36258e-05
-9.11526e-07
5.3998e-05
5.29809e-07
-5.12608e-05
-2.51849e-06
1.81258e-07
5.17579e-05
1.84977e-06
5.31609e-09
-1.10481e-06
3.30272e-07
-1.97542e-06
1.03959e-07
1.12375e-06
6.12453e-09
-5.6232e-05
5.53181e-05
-5.46616e-05
-1.64375e-08
5.21657e-05
7.42652e-09
1.58205e-08
-4.84603e-07
-4.55209e-05
-2.39382e-06
4.80035e-05
5.76983e-07
-6.59544e-05
-1.28064e-06
6.48145e-05
1.93589e-06
-2.64516e-07
-1.9066e-06
1.85627e-07
-2.22341e-06
2.46659e-06
1.43799e-09
-4.12988e-05
3.88871e-05
-7.17881e-05
7.05089e-05
-3.07447e-08
3.81842e-07
-6.35562e-05
-1.87068e-06
6.24124e-05
2.63259e-06
-4.95882e-05
1.06087e-06
-1.06242e-07
5.05009e-05
-1.48545e-06
4.52794e-07
-1.58493e-06
2.39071e-06
-5.23576e-07
-1.51282e-07
-4.56782e-07
-3.09496e-07
-6.9058e-05
6.74968e-05
-3.8128e-05
1.9989e-07
3.86795e-05
-1.37678e-07
1.01242e-07
-1.50203e-08
-5.21723e-05
-1.91716e-06
5.22733e-05
1.72495e-06
-5.41897e-05
-1.17619e-06
-3.29674e-09
5.42129e-05
1.14124e-06
-1.13833e-08
-2.55997e-06
2.00617e-06
-1.19208e-06
-1.62776e-09
9.91193e-07
-6.38004e-09
-4.97159e-05
4.80051e-05
-5.41254e-05
-6.51969e-09
5.29494e-05
-6.14267e-09
-4.73375e-09
-4.1886e-12
-5.51809e-05
-4.71104e-07
5.51556e-05
4.93115e-07
-5.51805e-05
-4.7126e-07
3.28259e-09
5.51552e-05
4.93343e-07
6.67749e-12
-4.1818e-07
1.0748e-07
-4.18363e-07
1.64424e-09
1.0786e-07
1.11433e-11
-5.44856e-05
5.4008e-05
-5.44855e-05
6.54357e-09
5.40077e-05
1.19898e-11
4.74809e-09
1.51177e-08
-5.4189e-05
-1.17631e-06
5.42121e-05
1.14134e-06
-5.21717e-05
-1.91695e-06
1.06265e-07
5.22725e-05
1.72497e-06
1.14131e-08
-1.19237e-06
9.91603e-07
-2.5599e-06
1.51334e-07
2.00625e-06
6.40614e-09
-5.41243e-05
5.29481e-05
-4.97132e-05
-1.99965e-07
4.80026e-05
6.1598e-09
-1.01293e-07
-3.81931e-07
-4.95877e-05
1.06168e-06
5.05003e-05
-1.4861e-06
-6.35559e-05
-1.87136e-06
6.2412e-05
2.6333e-06
-4.5289e-07
-5.22457e-07
-4.57429e-07
-1.5858e-06
2.39156e-06
3.09525e-07
-3.81257e-05
3.86779e-05
-6.90608e-05
6.7499e-05
1.37689e-07
1.76617e-07
-6.14224e-05
-2.15041e-06
6.05616e-05
2.83457e-06
-5.11383e-05
2.40801e-06
-3.14889e-09
5.16486e-05
-2.7385e-06
2.79513e-07
-2.02249e-06
2.73302e-06
1.90423e-06
-5.22269e-08
-2.20993e-06
-6.64293e-07
-6.59599e-05
6.44738e-05
-3.98046e-05
3.81219e-07
4.11671e-05
-4.85517e-07
2.93639e-07
-4.11927e-09
-5.22374e-05
-9.04492e-07
5.21939e-05
9.48993e-07
-5.40937e-05
-7.06688e-07
-1.2392e-08
5.39093e-05
8.99381e-07
-1.16275e-08
-1.30392e-06
1.29926e-06
-9.36641e-07
-7.82479e-09
1.05205e-06
8.70337e-09
-4.69959e-05
4.64639e-05
-5.20206e-05
-1.01515e-08
5.13328e-05
-1.09911e-09
-8.95777e-09
1.2589e-11
-5.50072e-05
-4.86754e-07
5.48184e-05
6.63104e-07
-5.50068e-05
-4.86817e-07
1.2418e-08
5.48181e-05
6.63149e-07
1.61087e-11
-5.27672e-07
6.68183e-07
-5.2778e-07
7.82544e-09
6.68321e-07
1.23374e-11
-5.34713e-05
5.29744e-05
-5.34709e-05
1.01842e-08
5.2974e-05
1.17903e-11
8.98229e-09
4.1367e-09
-5.40929e-05
-7.06725e-07
5.39084e-05
8.99428e-07
-5.22365e-05
-9.04332e-07
3.15262e-09
5.2193e-05
9.48817e-07
1.16017e-08
-9.36687e-07
1.05216e-06
-1.30372e-06
5.22401e-08
1.29903e-06
-8.69028e-09
-5.20193e-05
5.13315e-05
-4.69938e-05
-3.81328e-07
4.64621e-05
1.11631e-09
-2.93733e-07
-1.76689e-07
-5.11377e-05
2.40856e-06
5.1648e-05
-2.739e-06
-6.14219e-05
-2.15086e-06
6.0561e-05
2.83503e-06
-2.79581e-07
1.90491e-06
-2.21056e-06
-2.02301e-06
2.73355e-06
6.64338e-07
-3.98035e-05
4.11664e-05
-6.59616e-05
6.4475e-05
4.85557e-07
-1.97913e-08
-5.98243e-05
-2.23652e-06
5.91776e-05
2.90304e-06
-5.20847e-05
2.77643e-06
9.23934e-08
5.24542e-05
-3.25811e-06
7.36022e-08
-2.18483e-06
2.84847e-06
2.63429e-06
3.31015e-08
-3.02991e-06
-9.64366e-07
-6.31039e-05
6.18317e-05
-4.25404e-05
5.04758e-07
4.38477e-05
-8.14935e-07
4.46052e-07
1.81274e-08
-5.21842e-05
-4.33813e-07
5.22367e-05
4.55503e-07
-5.37269e-05
-3.86918e-07
-9.21274e-09
5.35721e-05
5.69061e-07
6.21813e-09
-6.20387e-07
6.56969e-07
-5.12768e-07
-1.21335e-08
7.1353e-07
3.67217e-08
-4.6268e-05
4.63022e-05
-5.08506e-05
-8.58505e-09
5.0509e-05
2.15666e-08
-9.06199e-09
1.32108e-11
-5.46148e-05
-2.60871e-07
5.44253e-05
4.41112e-07
-5.46144e-05
-2.60915e-07
9.23616e-09
5.4425e-05
4.41138e-07
1.34092e-11
-3.578e-07
5.49313e-07
-3.57856e-07
1.21665e-08
5.49344e-07
1.32525e-11
-5.26075e-05
5.23381e-05
-5.2607e-05
8.60946e-09
5.23375e-05
1.27602e-11
9.08488e-09
-1.81172e-08
-5.37261e-05
-3.86945e-07
5.35713e-05
5.69068e-07
-5.21834e-05
-4.33734e-07
-9.23963e-08
5.2236e-05
4.55386e-07
-6.20691e-09
-5.12802e-07
7.13552e-07
-6.20275e-07
-3.30813e-08
6.56814e-07
-3.67133e-08
-5.08493e-05
5.05077e-05
-4.62664e-05
-5.04877e-07
4.63008e-05
-2.15561e-08
-4.46166e-07
1.97172e-08
-5.20842e-05
2.77676e-06
5.24537e-05
-3.25837e-06
-5.98237e-05
-2.23686e-06
5.91769e-05
2.90336e-06
-7.36737e-08
2.63473e-06
-3.03029e-06
-2.18519e-06
2.84884e-06
9.64406e-07
-4.254e-05
4.38474e-05
-6.31048e-05
6.18324e-05
8.14979e-07
-1.80581e-07
-5.86156e-05
-2.23816e-06
5.81157e-05
2.91867e-06
-5.2776e-05
2.81185e-06
1.35151e-07
5.30553e-05
-3.40685e-06
-1.03913e-07
-2.21925e-06
2.88519e-06
2.78642e-06
1.17382e-07
-3.32954e-06
-1.19089e-06
-6.06883e-05
5.9641e-05
-4.50188e-05
5.73088e-07
4.60667e-05
-1.07585e-06
5.39472e-07
4.64575e-08
-5.23243e-05
-2.42867e-07
5.24368e-05
2.19064e-07
-5.34559e-05
-2.39812e-07
-4.22777e-09
5.33708e-05
3.75605e-07
3.1011e-08
-3.09656e-07
3.08425e-07
-2.95863e-07
-7.15621e-09
4.50156e-07
6.73333e-08
-4.64803e-05
4.67432e-05
-5.02716e-05
-4.1437e-09
5.01033e-05
5.17041e-08
-6.77794e-09
1.37909e-11
-5.42633e-05
-1.66357e-07
5.41257e-05
2.99761e-07
-5.4263e-05
-1.66381e-07
4.25214e-09
5.41254e-05
2.99776e-07
1.32754e-11
-1.97073e-07
3.51916e-07
-1.97106e-07
7.18021e-09
3.51936e-07
1.40705e-11
-5.21342e-05
5.19637e-05
-5.21336e-05
4.16885e-09
5.19631e-05
1.36035e-11
6.80287e-09
-4.64543e-08
-5.34552e-05
-2.39812e-07
5.33701e-05
3.75589e-07
-5.23237e-05
-2.42836e-07
-1.35157e-07
5.24362e-05
2.19009e-07
-3.10028e-08
-2.95878e-07
4.50152e-07
-3.096e-07
-1.17387e-07
3.08339e-07
-6.73293e-08
-5.02703e-05
5.0102e-05
-4.64791e-05
-5.73208e-07
4.67422e-05
-5.16979e-08
-5.3959e-07
1.80503e-07
-5.27755e-05
2.81202e-06
5.30548e-05
-3.40693e-06
-5.86148e-05
-2.2384e-06
5.81149e-05
2.91886e-06
1.03838e-07
2.78666e-06
-3.32971e-06
-2.2195e-06
2.88542e-06
1.19091e-06
-4.50186e-05
4.60665e-05
-6.06887e-05
5.96413e-05
1.07588e-06
-3.04565e-07
-5.76738e-05
-2.20861e-06
5.72737e-05
2.9133e-06
-5.32894e-05
2.73626e-06
1.49232e-07
5.34823e-05
-3.38304e-06
-2.44437e-07
-2.20135e-06
2.88763e-06
2.75218e-06
1.43449e-07
-3.37414e-06
-1.3512e-06
-5.87053e-05
5.78479e-05
-4.69656e-05
6.10448e-07
4.77402e-05
-1.26563e-06
5.87669e-07
9.2336e-08
-5.25519e-05
-2.05569e-07
5.26669e-05
1.47467e-07
-5.33171e-05
-1.71303e-07
3.77938e-09
5.32804e-05
2.96581e-07
7.19142e-08
-2.10125e-07
1.66554e-07
-1.9706e-07
-3.84866e-10
3.23097e-07
9.44398e-08
-4.70401e-05
4.73505e-05
-4.99876e-05
3.16744e-09
4.99076e-05
8.06826e-08
-7.06135e-10
1.59549e-11
-5.40105e-05
-1.48071e-07
5.39098e-05
2.52555e-07
-5.40102e-05
-1.48074e-07
-3.75536e-09
5.39095e-05
2.52552e-07
1.38545e-11
-1.50634e-07
2.65398e-07
-1.5065e-07
4.08381e-10
2.65407e-07
2.39618e-11
-5.18123e-05
5.16674e-05
-5.18117e-05
-3.13372e-09
5.16668e-05
1.4527e-11
7.29822e-10
-9.23459e-08
-5.33164e-05
-1.71268e-07
5.32797e-05
2.96545e-07
-5.25513e-05
-2.05575e-07
-1.49237e-07
5.26663e-05
1.47449e-07
-7.1922e-08
-1.97038e-07
3.23068e-07
-2.1011e-07
-1.43455e-07
1.66517e-07
-9.44971e-08
-4.99864e-05
4.99065e-05
-4.70391e-05
-6.10529e-07
4.73496e-05
-8.06861e-08
-5.87754e-07
3.0448e-07
-5.32888e-05
2.73631e-06
5.34818e-05
-3.38299e-06
-5.7673e-05
-2.20876e-06
5.72729e-05
2.91336e-06
2.44356e-07
2.75229e-06
-3.37416e-06
-2.2015e-06
2.88774e-06
1.3512e-06
-4.69654e-05
4.774e-05
-5.87054e-05
5.78478e-05
1.26564e-06
-3.96432e-07
-5.69128e-05
-2.16328e-06
5.65796e-05
2.89293e-06
-5.36353e-05
2.62149e-06
1.46923e-07
5.37521e-05
-3.28168e-06
-3.50477e-07
-2.1626e-06
2.874e-06
2.65182e-06
1.47826e-07
-3.30305e-06
-1.45748e-06
-5.70809e-05
5.63751e-05
-4.83819e-05
6.2619e-07
4.89197e-05
-1.39558e-06
6.14567e-07
1.22377e-07
-5.27725e-05
-2.29185e-07
5.28652e-05
1.61065e-07
-5.32536e-05
-1.41803e-07
1.23939e-08
5.32307e-05
2.74637e-07
1.07374e-07
-2.11356e-07
1.46195e-07
-1.52045e-07
8.01019e-09
2.78196e-07
1.10967e-07
-4.76491e-05
4.79352e-05
-4.98528e-05
1.12368e-08
4.98108e-05
1.04586e-07
7.30527e-09
1.04226e-11
-5.38202e-05
-1.52237e-07
5.37355e-05
2.49334e-07
-5.38199e-05
-1.52249e-07
-1.23657e-08
5.37352e-05
2.49319e-07
2.89774e-11
-1.47559e-07
2.4511e-07
-1.47535e-07
-7.97437e-09
2.45104e-07
-7.80182e-11
-5.1527e-05
5.13861e-05
-5.15264e-05
-1.14844e-08
5.13855e-05
1.04518e-10
-7.02004e-09
-1.22301e-07
-5.3253e-05
-1.41875e-07
5.32302e-05
2.74604e-07
-5.2772e-05
-2.29073e-07
-1.46919e-07
5.28646e-05
1.61048e-07
-1.07418e-07
-1.51918e-07
2.78136e-07
-2.11458e-07
-1.47815e-07
1.46189e-07
-1.11672e-07
-4.98515e-05
4.98098e-05
-4.76486e-05
-6.26509e-07
4.79343e-05
-1.03989e-07
-6.14424e-07
3.96327e-07
-5.36347e-05
2.62153e-06
5.37515e-05
-3.28158e-06
-5.69119e-05
-2.16332e-06
5.65787e-05
2.89287e-06
3.50399e-07
2.65182e-06
-3.30296e-06
-2.16267e-06
2.87398e-06
1.45738e-06
-4.83818e-05
4.89194e-05
-5.70808e-05
5.63749e-05
1.39564e-06
-4.62401e-07
-5.62724e-05
-2.11026e-06
5.59835e-05
2.86153e-06
-5.38329e-05
2.49682e-06
1.47228e-07
5.38808e-05
-3.15428e-06
-4.28022e-07
-2.1143e-06
2.84948e-06
2.53235e-06
1.46427e-07
-3.18765e-06
-1.52355e-06
-5.57409e-05
5.51542e-05
-4.935e-05
6.26573e-07
4.96967e-05
-1.48011e-06
6.21864e-07
1.43902e-07
-5.29432e-05
-2.70084e-07
5.30051e-05
2.11502e-07
-5.32082e-05
-1.30201e-07
1.94162e-08
5.3183e-05
2.79862e-07
1.32824e-07
-2.46659e-07
1.82302e-07
-1.33201e-07
1.64591e-08
2.72063e-07
1.2024e-07
-4.8195e-05
4.84312e-05
-4.97776e-05
1.93041e-08
4.97483e-05
1.15377e-07
1.53655e-08
-2.18798e-10
-5.36544e-05
-1.59146e-07
5.35727e-05
2.60489e-07
-5.36541e-05
-1.59059e-07
-2.01648e-08
5.35726e-05
2.6054e-07
2.69509e-11
-1.54319e-07
2.51821e-07
-1.54293e-07
-1.63442e-08
2.51799e-07
1.38939e-11
-5.12471e-05
5.11072e-05
-5.12465e-05
-1.92327e-08
5.11067e-05
8.00729e-11
-1.51389e-08
-1.44093e-07
-5.32078e-05
-1.30316e-07
5.31823e-05
2.7968e-07
-5.29426e-05
-2.70093e-07
-1.47287e-07
5.30045e-05
2.11459e-07
-1.32838e-07
-1.33118e-07
2.72001e-07
-2.46727e-07
-1.4641e-07
1.82285e-07
-1.20473e-07
-4.97765e-05
4.97474e-05
-4.81945e-05
-6.26713e-07
4.84306e-05
-1.14927e-07
-6.21784e-07
4.62269e-07
-5.38324e-05
2.4968e-06
5.38801e-05
-3.15415e-06
-5.62716e-05
-2.11025e-06
5.59827e-05
2.86137e-06
4.27924e-07
2.53234e-06
-3.18753e-06
-2.11428e-06
2.84934e-06
1.52348e-06
-4.93498e-05
4.96964e-05
-5.57407e-05
5.51539e-05
1.48012e-06
-5.07995e-07
-5.5712e-05
-2.05321e-06
5.5452e-05
2.82115e-06
-5.39003e-05
2.37608e-06
1.4299e-07
5.38919e-05
-3.0186e-06
-4.82508e-07
-2.05865e-06
2.8127e-06
2.40903e-06
1.441e-07
-3.05517e-06
-1.55946e-06
-5.46246e-05
5.41309e-05
-4.996e-05
6.17142e-07
5.01594e-05
-1.52908e-06
6.16711e-07
1.58468e-07
-5.30488e-05
-3.14716e-07
5.3074e-05
2.74043e-07
-5.31532e-05
-1.29329e-07
2.44744e-08
5.31164e-05
3.00086e-07
1.50535e-07
-2.89703e-07
2.39581e-07
-1.27506e-07
2.22279e-08
2.85683e-07
1.24944e-07
-4.86357e-05
4.88132e-05
-4.97206e-05
2.3813e-08
4.96924e-05
1.22586e-07
2.27847e-08
2.02719e-11
-5.34903e-05
-1.6392e-07
5.34041e-05
2.7467e-07
-5.34901e-05
-1.6411e-07
-2.42849e-08
5.34038e-05
2.74652e-07
1.68019e-10
-1.60267e-07
2.64688e-07
-1.60282e-07
-2.17014e-08
2.64631e-07
-5.48574e-10
-5.09697e-05
5.08301e-05
-5.09689e-05
-2.58435e-08
5.08301e-05
5.56765e-11
-2.25027e-08
-1.58293e-07
-5.31527e-05
-1.29283e-07
5.31159e-05
3.00038e-07
-5.30483e-05
-3.1441e-07
-1.42985e-07
5.30733e-05
2.74024e-07
-1.50393e-07
-1.27334e-07
2.85673e-07
-2.89727e-07
-1.44029e-07
2.39581e-07
-1.27071e-07
-4.97196e-05
4.96916e-05
-4.86355e-05
-6.17913e-07
4.88119e-05
-1.22057e-07
-6.16645e-07
5.07855e-07
-5.38997e-05
2.37617e-06
5.38912e-05
-3.01847e-06
-5.57112e-05
-2.05311e-06
5.54513e-05
2.82093e-06
4.82412e-07
2.40903e-06
-3.05503e-06
-2.05857e-06
2.81248e-06
1.55918e-06
-4.99598e-05
5.01589e-05
-5.46244e-05
5.41305e-05
1.52905e-06
-5.38317e-07
-5.52029e-05
-1.99881e-06
5.49604e-05
2.77963e-06
-5.38604e-05
2.26684e-06
1.36533e-07
5.38051e-05
-2.88639e-06
-5.19798e-07
-2.00404e-06
2.77296e-06
2.29627e-06
1.38673e-07
-2.92332e-06
-1.57477e-06
-5.36809e-05
5.32569e-05
-5.02958e-05
6.03076e-07
5.03848e-05
-1.5541e-06
6.05794e-07
1.67265e-07
-5.30801e-05
-3.57697e-07
5.30678e-05
3.39276e-07
-5.30719e-05
-1.36214e-07
2.82999e-08
5.30178e-05
3.29317e-07
1.61741e-07
-3.33273e-07
3.04045e-07
-1.30675e-07
2.59927e-08
3.10908e-07
1.27161e-07
-4.89574e-05
4.90756e-05
-4.96618e-05
2.65165e-08
4.96262e-05
1.28318e-07
2.83002e-08
1.25947e-11
-5.33145e-05
-1.67738e-07
5.3219e-05
2.91536e-07
-5.33143e-05
-1.68144e-07
-2.78928e-08
5.32188e-05
2.91525e-07
4.96996e-11
-1.64535e-07
2.80054e-07
-1.64183e-07
-2.62112e-08
2.8003e-07
-1.22733e-09
-5.06929e-05
5.05529e-05
-5.06917e-05
-3.07796e-08
5.05531e-05
1.01888e-09
-2.47121e-08
-1.67027e-07
-5.30714e-05
-1.36015e-07
5.30173e-05
3.29258e-07
-5.30797e-05
-3.5716e-07
-1.36573e-07
5.30672e-05
3.39236e-07
-1.61886e-07
-1.30654e-07
3.10833e-07
-3.33756e-07
-1.38579e-07
3.04076e-07
-1.30924e-07
-4.96611e-05
4.96253e-05
-4.89579e-05
-6.04422e-07
4.90743e-05
-1.24919e-07
-6.04722e-07
5.38135e-07
-5.38599e-05
2.26701e-06
5.38044e-05
-2.88627e-06
-5.52023e-05
-1.99867e-06
5.49597e-05
2.77938e-06
5.19727e-07
2.29611e-06
-2.92314e-06
-2.00399e-06
2.77272e-06
1.5743e-06
-5.02959e-05
5.03842e-05
-5.36809e-05
5.32565e-05
1.55437e-06
-5.56977e-07
-5.47237e-05
-1.94916e-06
5.44893e-05
2.74048e-06
-5.3732e-05
2.16799e-06
1.29256e-07
5.3638e-05
-2.76029e-06
-5.4348e-07
-1.95102e-06
2.73124e-06
2.19231e-06
1.317e-07
-2.79434e-06
-1.57492e-06
-5.28665e-05
5.24923e-05
-5.04261e-05
5.87546e-07
5.04317e-05
-1.56064e-06
5.90351e-07
1.7172e-07
-5.30374e-05
-3.98112e-07
5.29884e-05
4.04594e-07
-5.29542e-05
-1.49076e-07
3.09156e-08
5.2879e-05
3.65047e-07
1.68151e-07
-3.74686e-07
3.68673e-07
-1.40594e-07
2.92434e-08
3.43097e-07
1.29627e-07
-4.91617e-05
4.92215e-05
-4.95841e-05
3.06881e-08
4.9534e-05
1.29572e-07
3.10158e-08
9.81671e-12
-5.31184e-05
-1.72673e-07
5.301e-05
3.12027e-07
-5.31183e-05
-1.72718e-07
-3.08641e-08
5.30098e-05
3.12016e-07
4.51101e-11
-1.68587e-07
2.983e-07
-1.68334e-07
-2.93831e-08
2.9828e-07
-1.44655e-10
-5.04145e-05
5.02727e-05
-5.04138e-05
-3.14281e-08
5.02724e-05
7.67871e-10
-2.83278e-08
-1.71686e-07
-5.29538e-05
-1.49028e-07
5.28786e-05
3.64994e-07
-5.30369e-05
-3.9808e-07
-1.29241e-07
5.29879e-05
4.04607e-07
-1.68216e-07
-1.40632e-07
3.43039e-07
-3.75006e-07
-1.31626e-07
3.68701e-07
-1.30286e-07
-4.95836e-05
4.95334e-05
-4.91617e-05
-5.87773e-07
4.92211e-05
-1.27281e-07
-5.89669e-07
5.56839e-07
-5.37314e-05
2.16799e-06
5.36374e-05
-2.76013e-06
-5.4723e-05
-1.94908e-06
5.44887e-05
2.74024e-06
5.43383e-07
2.19221e-06
-2.79417e-06
-1.95095e-06
2.73098e-06
1.57481e-06
-5.04259e-05
5.04313e-05
-5.28663e-05
5.24921e-05
1.56078e-06
-5.66943e-07
-5.42565e-05
-1.90615e-06
5.40221e-05
2.70749e-06
-5.35286e-05
2.07785e-06
1.21798e-07
5.34002e-05
-2.63815e-06
-5.57519e-07
-1.90613e-06
2.69651e-06
2.10057e-06
1.24318e-07
-2.673e-06
-1.56508e-06
-5.21422e-05
5.18011e-05
-5.04024e-05
5.70805e-07
5.03444e-05
-1.55607e-06
5.73742e-07
1.73229e-07
-5.29223e-05
-4.35376e-07
5.2838e-05
4.68318e-07
-5.27929e-05
-1.67177e-07
3.28416e-08
5.26934e-05
4.07114e-07
1.71142e-07
-4.13406e-07
4.3267e-07
-1.5601e-07
3.1665e-08
3.81603e-07
1.29438e-07
-4.92531e-05
4.92591e-05
-4.94749e-05
3.2815e-08
4.94043e-05
1.28673e-07
3.17838e-08
1.49681e-11
-5.28949e-05
-1.79768e-07
5.27704e-05
3.37097e-07
-5.28948e-05
-1.79756e-07
-3.28171e-08
5.27703e-05
3.37083e-07
1.47356e-11
-1.74212e-07
3.20936e-07
-1.74195e-07
-3.16428e-08
3.20922e-07
1.40424e-11
-5.01302e-05
4.99833e-05
-5.01299e-05
-3.28007e-08
4.9983e-05
3.70838e-11
-3.16512e-08
-1.73207e-07
-5.27925e-05
-1.67142e-07
5.2693e-05
4.07064e-07
-5.29218e-05
-4.35406e-07
-1.21774e-07
5.28375e-05
4.68332e-07
-1.71122e-07
-1.55973e-07
3.81551e-07
-4.1344e-07
-1.24293e-07
4.32681e-07
-1.2944e-07
-4.94744e-05
4.94038e-05
-4.92528e-05
-5.70864e-07
4.92589e-05
-1.28565e-07
-5.73779e-07
5.66806e-07
-5.3528e-05
2.07784e-06
5.33996e-05
-2.638e-06
-5.42559e-05
-1.90608e-06
5.40215e-05
2.70724e-06
5.57384e-07
2.10057e-06
-2.67285e-06
-1.90602e-06
2.69623e-06
1.565e-06
-5.04021e-05
5.03441e-05
-5.2142e-05
5.1801e-05
1.556e-06
-5.70654e-07
-5.37859e-05
-1.87089e-06
5.35446e-05
2.6828e-06
-5.32584e-05
1.99284e-06
1.14721e-07
5.3098e-05
-2.51777e-06
-5.63835e-07
-1.86671e-06
2.66672e-06
2.01275e-06
1.17039e-07
-2.55185e-06
-1.54829e-06
-5.14765e-05
5.11539e-05
-5.02583e-05
5.54064e-07
5.01487e-05
-1.54204e-06
5.56832e-07
1.72486e-07
-5.27373e-05
-4.69543e-07
5.2618e-05
5.31052e-07
-5.25818e-05
-1.89505e-07
3.40997e-08
5.24555e-05
4.54174e-07
1.71374e-07
-4.48646e-07
4.95007e-07
-1.76206e-07
3.3215e-08
4.25965e-07
1.27869e-07
-4.92398e-05
4.91965e-05
-4.93225e-05
3.39125e-08
4.9227e-05
1.27488e-07
3.31106e-08
1.61036e-11
-5.26378e-05
-1.90765e-07
5.24934e-05
3.69233e-07
-5.26377e-05
-1.90752e-07
-3.40747e-08
5.24933e-05
3.69219e-07
1.53941e-11
-1.82839e-07
3.48638e-07
-1.82826e-07
-3.31905e-08
3.48624e-07
1.56278e-11
-4.98335e-05
4.96766e-05
-4.98332e-05
-3.38887e-08
4.96764e-05
1.50223e-11
-3.30868e-08
-1.72463e-07
-5.25814e-05
-1.89476e-07
5.24551e-05
4.54131e-07
-5.27368e-05
-4.69575e-07
-1.14698e-07
5.26176e-05
5.31067e-07
-1.71351e-07
-1.76175e-07
4.2592e-07
-4.48676e-07
-1.17015e-07
4.95019e-07
-1.27861e-07
-4.93221e-05
4.92266e-05
-4.92396e-05
-5.54121e-07
4.91963e-05
-1.2748e-07
-5.56888e-07
5.70517e-07
-5.32579e-05
1.99283e-06
5.30974e-05
-2.51763e-06
-5.37854e-05
-1.87082e-06
5.35442e-05
2.68256e-06
5.637e-07
2.01276e-06
-2.55171e-06
-1.8666e-06
2.66645e-06
1.54822e-06
-5.0258e-05
5.01485e-05
-5.14763e-05
5.11537e-05
1.54197e-06
-5.70105e-07
-5.32985e-05
-1.84378e-06
5.30441e-05
2.66829e-06
-5.29251e-05
1.91249e-06
1.08284e-07
5.27335e-05
-2.39926e-06
-5.65088e-07
-1.83554e-06
2.64679e-06
1.93072e-06
1.10303e-07
-2.43324e-06
-1.52735e-06
-5.08411e-05
5.05247e-05
-5.00161e-05
5.38125e-07
4.98631e-05
-1.52281e-06
5.40528e-07
1.70254e-07
-5.2483e-05
-5.02475e-07
5.2329e-05
5.94568e-07
-5.23164e-05
-2.15026e-07
3.48056e-08
5.21611e-05
5.05752e-07
1.6979e-07
-4.81725e-07
5.57209e-07
-1.99931e-07
3.41682e-08
4.74603e-07
1.25653e-07
-4.91297e-05
4.90397e-05
-4.91187e-05
3.44792e-08
4.89948e-05
1.2556e-07
3.39116e-08
1.68377e-11
-5.23391e-05
-2.06756e-07
5.21709e-05
4.09778e-07
-5.2339e-05
-2.06743e-07
-3.47801e-08
5.21708e-05
4.09766e-07
1.63865e-11
-1.9616e-07
3.84611e-07
-1.96147e-07
-3.41432e-08
3.84599e-07
1.65485e-11
-4.95144e-05
4.93421e-05
-4.95141e-05
-3.44549e-08
4.93419e-05
1.59731e-11
-3.38877e-08
-1.70231e-07
-5.23161e-05
-2.15e-07
5.21608e-05
5.05712e-07
-5.24826e-05
-5.02508e-07
-1.08261e-07
5.23286e-05
5.94583e-07
-1.69767e-07
-1.99904e-07
4.74562e-07
-4.81754e-07
-1.1028e-07
5.57222e-07
-1.25645e-07
-4.91183e-05
4.89945e-05
-4.91296e-05
-5.38181e-07
4.90396e-05
-1.25552e-07
-5.40584e-07
5.6997e-07
-5.29246e-05
1.91249e-06
5.2733e-05
-2.39913e-06
-5.3298e-05
-1.84371e-06
5.30436e-05
2.66805e-06
5.64954e-07
1.93073e-06
-2.43311e-06
-1.83543e-06
2.64652e-06
1.52728e-06
-5.00159e-05
4.98629e-05
-5.0841e-05
5.05246e-05
1.52274e-06
-5.65951e-07
-5.27822e-05
-1.82186e-06
5.25093e-05
2.6607e-06
-5.25298e-05
1.83279e-06
1.02456e-07
5.23069e-05
-2.2783e-06
-5.62623e-07
-1.8114e-06
2.6359e-06
1.85175e-06
1.0423e-07
-2.31495e-06
-1.50204e-06
-5.02131e-05
4.98933e-05
-4.96903e-05
5.22466e-07
4.94985e-05
-1.49977e-06
5.24861e-07
1.66867e-07
-5.21592e-05
-5.33968e-07
5.19697e-05
6.59038e-07
-5.19922e-05
-2.4324e-07
3.50203e-08
5.18055e-05
5.61766e-07
1.66949e-07
-5.13454e-07
6.2051e-07
-2.26531e-07
3.46112e-08
5.27831e-07
1.22872e-07
-4.89281e-05
4.87937e-05
-4.88571e-05
3.45866e-08
4.87022e-05
1.23055e-07
3.42325e-08
1.70586e-11
-5.19913e-05
-2.27308e-07
5.17957e-05
4.5787e-07
-5.19911e-05
-2.27296e-07
-3.49947e-08
5.17956e-05
4.57859e-07
1.68088e-11
-2.14276e-07
4.28523e-07
-2.14264e-07
-3.45859e-08
4.28512e-07
1.69598e-11
-4.9162e-05
4.89693e-05
-4.91618e-05
-3.45621e-08
4.89691e-05
1.66464e-11
-3.42083e-08
-1.66844e-07
-5.19919e-05
-2.43215e-07
5.18052e-05
5.61728e-07
-5.21588e-05
-5.34001e-07
-1.02434e-07
5.19693e-05
6.59051e-07
-1.66926e-07
-2.26506e-07
5.27793e-07
-5.13483e-07
-1.04208e-07
6.20522e-07
-1.22865e-07
-4.88568e-05
4.87019e-05
-4.8928e-05
-5.22522e-07
4.87936e-05
-1.23047e-07
-5.24917e-07
5.6582e-07
-5.25294e-05
1.83279e-06
5.23065e-05
-2.27819e-06
-5.27818e-05
-1.82179e-06
5.2509e-05
2.66046e-06
5.62491e-07
1.85176e-06
-2.31484e-06
-1.81129e-06
2.63563e-06
1.50197e-06
-4.96901e-05
4.94984e-05
-5.0213e-05
4.98932e-05
1.49969e-06
-5.59837e-07
-5.22265e-05
-1.807e-06
5.19301e-05
2.66327e-06
-5.20716e-05
1.75469e-06
9.73555e-08
5.1816e-05
-2.15625e-06
-5.57558e-07
-1.79368e-06
2.63401e-06
1.77421e-06
9.88454e-08
-2.1953e-06
-1.47527e-06
-4.95738e-05
4.9242e-05
-4.92886e-05
5.07805e-07
4.90602e-05
-1.47419e-06
5.09962e-07
1.62936e-07
-5.17644e-05
-5.65365e-07
5.15384e-05
7.25757e-07
-5.16041e-05
-2.74318e-07
3.48852e-08
5.13835e-05
6.23041e-07
1.63322e-07
-5.44609e-07
6.85469e-07
-2.55937e-07
3.46464e-08
5.85975e-07
1.19877e-07
-4.86388e-05
4.84614e-05
-4.85322e-05
3.43742e-08
4.83434e-05
1.20203e-07
3.41765e-08
1.70589e-11
-5.15872e-05
-2.5244e-07
5.13607e-05
5.13772e-07
-5.15871e-05
-2.52429e-07
-3.48596e-08
5.13606e-05
5.13762e-07
1.69025e-11
-2.36961e-07
4.80118e-07
-2.3695e-07
-3.46209e-08
4.80108e-07
1.70667e-11
-4.87665e-05
4.85484e-05
-4.87663e-05
-3.43497e-08
4.85483e-05
1.68715e-11
-3.41523e-08
-1.62914e-07
-5.16039e-05
-2.74295e-07
5.13832e-05
6.23005e-07
-5.1764e-05
-5.65398e-07
-9.73342e-08
5.15381e-05
7.25769e-07
-1.633e-07
-2.55913e-07
5.85938e-07
-5.44639e-07
-9.8824e-08
6.8548e-07
-1.1987e-07
-4.85321e-05
4.83433e-05
-4.86388e-05
-5.07862e-07
4.84614e-05
-1.20195e-07
-5.10018e-07
5.59709e-07
-5.20712e-05
1.7547e-06
5.18156e-05
-2.15614e-06
-5.22262e-05
-1.80693e-06
5.19298e-05
2.66304e-06
5.57429e-07
1.77423e-06
-2.1952e-06
-1.79358e-06
2.63375e-06
1.4752e-06
-4.92885e-05
4.90601e-05
-4.95737e-05
4.9242e-05
1.47412e-06
-5.52204e-07
-5.16217e-05
-1.79785e-06
5.12971e-05
2.67463e-06
-5.15474e-05
1.67635e-06
9.28963e-08
5.12571e-05
-2.03118e-06
-5.50688e-07
-1.78192e-06
2.64101e-06
1.69693e-06
9.41203e-08
-2.07312e-06
-1.44715e-06
-4.89071e-05
4.85564e-05
-4.88143e-05
4.93904e-07
4.85496e-05
-1.44696e-06
4.95834e-07
1.58659e-07
-5.12962e-05
-5.97091e-07
5.10323e-05
7.95286e-07
-5.11472e-05
-3.08092e-07
3.44714e-08
5.08899e-05
6.89531e-07
1.59233e-07
-5.75778e-07
7.52822e-07
-2.88052e-07
3.43654e-08
6.49218e-07
1.16746e-07
-4.82643e-05
4.80444e-05
-4.81387e-05
3.39101e-08
4.79135e-05
1.17159e-07
3.38329e-08
1.69259e-11
-5.11199e-05
-2.81822e-07
5.08591e-05
5.77078e-07
-5.11198e-05
-2.81813e-07
-3.4446e-08
5.0859e-05
5.77069e-07
1.68282e-11
-2.63981e-07
5.39174e-07
-2.63972e-07
-3.43401e-08
5.39165e-07
1.7025e-11
-4.83182e-05
4.80703e-05
-4.83181e-05
-3.38858e-08
4.80702e-05
1.6892e-11
-3.38088e-08
-1.58637e-07
-5.11469e-05
-3.08071e-07
5.08897e-05
6.89496e-07
-5.12959e-05
-5.97123e-07
-9.28756e-08
5.1032e-05
7.95296e-07
-1.59212e-07
-2.88029e-07
6.49182e-07
-5.75808e-07
-9.40994e-08
7.52831e-07
-1.16739e-07
-4.81386e-05
4.79134e-05
-4.82643e-05
-4.9396e-07
4.80444e-05
-1.17151e-07
-4.9589e-07
5.5208e-07
-5.15471e-05
1.67637e-06
5.12568e-05
-2.03108e-06
-5.16214e-05
-1.79778e-06
5.12969e-05
2.67439e-06
5.50563e-07
1.69696e-06
-2.07303e-06
-1.78182e-06
2.64075e-06
1.44709e-06
-4.88143e-05
4.85496e-05
-4.89071e-05
4.85564e-05
1.44689e-06
-5.43525e-07
-5.09587e-05
-1.79393e-06
5.06018e-05
2.69441e-06
-5.0953e-05
1.59699e-06
8.90181e-08
5.06257e-05
-1.90217e-06
-5.42573e-07
-1.77559e-06
2.65656e-06
1.61897e-06
9.00019e-08
-1.94746e-06
-1.4182e-06
-4.81995e-05
4.78237e-05
-4.82675e-05
4.80707e-07
4.79656e-05
-1.41868e-06
4.82435e-07
1.5421e-07
-5.07516e-05
-6.29718e-07
5.04478e-05
8.68344e-07
-5.06161e-05
-3.44502e-07
3.38494e-08
5.03196e-05
7.61332e-07
1.54899e-07
-6.07576e-07
8.23344e-07
-3.22805e-07
3.38455e-08
7.17685e-07
1.13564e-07
-4.78052e-05
4.75426e-05
-4.76714e-05
3.32607e-08
4.74072e-05
1.14027e-07
3.32751e-08
1.67132e-11
-5.05825e-05
-3.152e-07
5.02841e-05
6.47508e-07
-5.05825e-05
-3.15192e-07
-3.38243e-08
5.0284e-05
6.47501e-07
1.66525e-11
-2.95086e-07
6.05431e-07
-2.95077e-07
-3.38205e-08
6.05423e-07
1.6893e-11
-4.78085e-05
4.75265e-05
-4.78084e-05
-3.32367e-08
4.75265e-05
1.68003e-11
-3.32511e-08
-1.54189e-07
-5.06159e-05
-3.44482e-07
5.03194e-05
7.61299e-07
-5.07514e-05
-6.29749e-07
-8.89977e-08
5.04476e-05
8.68353e-07
-1.54878e-07
-3.22784e-07
7.17652e-07
-6.07605e-07
-8.99815e-08
8.23352e-07
-1.13557e-07
-4.76714e-05
4.74072e-05
-4.78053e-05
-4.80762e-07
4.75428e-05
-1.1402e-07
-4.8249e-07
5.43404e-07
-5.09527e-05
1.59702e-06
5.06254e-05
-1.90209e-06
-5.09585e-05
-1.79386e-06
5.06016e-05
2.69419e-06
5.42452e-07
1.61901e-06
-1.94738e-06
-1.77549e-06
2.65631e-06
1.41814e-06
-4.82675e-05
4.79656e-05
-4.81995e-05
4.78238e-05
1.41862e-06
-5.34006e-07
-5.02294e-05
-1.7943e-06
4.98362e-05
2.72154e-06
-5.02837e-05
1.51639e-06
8.5637e-08
4.99169e-05
-1.76924e-06
-5.33384e-07
-1.77343e-06
2.67918e-06
1.53929e-06
8.63919e-08
-1.81711e-06
-1.38844e-06
-4.74395e-05
4.70336e-05
-4.76462e-05
4.68048e-07
4.73061e-05
-1.3892e-06
4.69517e-07
1.49667e-07
-5.01268e-05
-6.63472e-07
4.97811e-05
9.45108e-07
-5.00058e-05
-3.83422e-07
3.30672e-08
4.96675e-05
8.38273e-07
1.50396e-07
-6.40242e-07
8.97266e-07
-3.60011e-07
3.31354e-08
7.91125e-07
1.1036e-07
-4.72611e-05
4.69553e-05
-4.71255e-05
3.24701e-08
4.68199e-05
1.10831e-07
3.2548e-08
1.64376e-11
-4.99688e-05
-3.52241e-07
4.96295e-05
7.24577e-07
-4.99687e-05
-3.52234e-07
-3.30425e-08
4.96294e-05
7.24571e-07
1.64054e-11
-3.29893e-07
6.78324e-07
-3.29885e-07
-3.31108e-08
6.78318e-07
1.66906e-11
-4.72292e-05
4.69094e-05
-4.72291e-05
-3.24464e-08
4.69093e-05
1.66274e-11
-3.25244e-08
-1.49646e-07
-5.00056e-05
-3.83404e-07
4.96674e-05
8.38242e-07
-5.01265e-05
-6.63503e-07
-8.56169e-08
4.97809e-05
9.45115e-07
-1.50376e-07
-3.59992e-07
7.91093e-07
-6.40271e-07
-8.63719e-08
8.97272e-07
-1.10354e-07
-4.71255e-05
4.682e-05
-4.72612e-05
-4.68103e-07
4.69555e-05
-1.10824e-07
-4.69572e-07
5.33891e-07
-5.02835e-05
1.51641e-06
4.99167e-05
-1.76917e-06
-5.02293e-05
-1.79424e-06
4.98361e-05
2.72132e-06
5.33268e-07
1.53932e-06
-1.81704e-06
-1.77333e-06
2.67893e-06
1.38839e-06
-4.76462e-05
4.73061e-05
-4.74396e-05
4.70338e-05
1.38915e-06
-5.24022e-07
-4.9426e-05
-1.79923e-06
4.89929e-05
2.75639e-06
-4.95348e-05
1.43481e-06
8.27162e-08
4.91262e-05
-1.63298e-06
-5.23826e-07
-1.77655e-06
2.71051e-06
1.45954e-06
8.32988e-08
-1.68449e-06
-1.35849e-06
-4.6617e-05
4.61763e-05
-4.69483e-05
4.55989e-07
4.65686e-05
-1.35993e-06
4.57393e-07
1.45138e-07
-4.94175e-05
-6.98804e-07
4.90278e-05
1.02607e-06
-4.93109e-05
-4.24888e-07
3.21762e-08
4.89283e-05
9.20503e-07
1.45932e-07
-6.74525e-07
9.75479e-07
-3.9989e-07
3.231e-08
8.70107e-07
1.07196e-07
-4.66304e-05
4.62804e-05
-4.6496e-05
3.15859e-08
4.61468e-05
1.077e-07
3.1722e-08
1.61017e-11
-4.92721e-05
-3.9277e-07
4.8889e-05
8.08099e-07
-4.92721e-05
-3.92763e-07
-3.2152e-08
4.88889e-05
8.08094e-07
1.61062e-11
-3.68398e-07
7.58025e-07
-3.68391e-07
-3.22858e-08
7.5802e-07
1.64216e-11
-4.65727e-05
4.62115e-05
-4.65727e-05
-3.15627e-08
4.62115e-05
1.63964e-11
-3.16988e-08
-1.45118e-07
-4.93108e-05
-4.24871e-07
4.89282e-05
9.20474e-07
-4.94173e-05
-6.98834e-07
-8.26964e-08
4.90277e-05
1.02608e-06
-1.45912e-07
-3.99873e-07
8.70077e-07
-6.74553e-07
-8.32791e-08
9.75484e-07
-1.07189e-07
-4.64961e-05
4.61469e-05
-4.66307e-05
-4.56044e-07
4.62807e-05
-1.07693e-07
-4.57447e-07
5.23911e-07
-4.95346e-05
1.43485e-06
4.9126e-05
-1.63292e-06
-4.9426e-05
-1.79918e-06
4.89929e-05
2.75618e-06
5.23713e-07
1.45958e-06
-1.68443e-06
-1.77645e-06
2.71028e-06
1.35844e-06
-4.69484e-05
4.65687e-05
-4.66172e-05
4.61765e-05
1.35989e-06
-5.13673e-07
-4.85415e-05
-1.8082e-06
4.80651e-05
2.79834e-06
-4.87013e-05
1.35141e-06
8.01851e-08
4.82483e-05
-1.49223e-06
-5.13723e-07
-1.78343e-06
2.74852e-06
1.37786e-06
8.06035e-08
-1.54732e-06
-1.32838e-06
-4.5723e-05
4.52432e-05
-4.61706e-05
4.44426e-07
4.57492e-05
-1.33013e-06
4.45689e-07
1.40653e-07
-4.86196e-05
-7.35837e-07
4.81836e-05
1.11128e-06
-4.85265e-05
-4.68743e-07
3.12058e-08
4.80969e-05
1.00773e-06
1.4146e-07
-7.1031e-07
1.05771e-06
-4.42128e-07
3.13838e-08
9.53999e-07
1.04077e-07
-4.59112e-05
4.55157e-05
-4.57784e-05
3.0634e-08
4.53831e-05
1.04584e-07
3.08089e-08