/*--------------------------------*- C++ -*----------------------------------*\
  =========                 |
  \\      /  F ield         | OpenFOAM: The Open Source CFD Toolbox
   \\    /   O peration     | Website:  https://openfoam.org
    \\  /    A nd           | Version:  9
     \\/     M anipulation  |
\*---------------------------------------------------------------------------*/
FoamFile
{
    format      ascii;
    class       volScalarField;
    location    "0.5";
    object      p;
}
// * * * * * * * * * * * * * * * * * * * * * * * * * * * * * * * * * * * * * //

dimensions      [0 2 -2 0 0 0 0];

internalField   nonuniform List<scalar> 
4545
(
20.0971
20.0971
20.0971
20.0971
20.0971
20.0915
20.0915
20.0915
20.0915
20.0915
20.086
20.086
20.086
20.086
20.086
20.0806
20.0806
20.0806
20.0806
20.0806
20.0753
20.0753
20.0753
20.0753
20.0753
20.0702
20.0702
20.0702
20.0702
20.0702
20.0653
20.0653
20.0653
20.0653
20.0653
20.0605
20.0605
20.0605
20.0605
20.0605
20.0559
20.0559
20.0559
20.0559
20.0559
20.0515
20.0515
20.0515
20.0515
20.0515
20.0474
20.0474
20.0474
20.0474
20.0474
20.0434
20.0434
20.0434
20.0434
20.0434
20.0397
20.0397
20.0397
20.0397
20.0397
20.0362
20.0362
20.0362
20.0362
20.0362
20.033
20.033
20.033
20.033
20.033
20.0301
20.0301
20.0301
20.0301
20.0301
20.0274
20.0274
20.0274
20.0274
20.0274
20.025
20.025
20.025
20.025
20.025
20.0229
20.0229
20.0229
20.0229
20.0229
20.0211
20.0211
20.0211
20.0211
20.0211
20.0197
20.0197
20.0197
20.0197
20.0197
20.0185
20.0185
20.0185
20.0185
20.0185
20.0176
20.0176
20.0176
20.0176
20.0176
20.0171
20.017
20.017
20.017
20.0171
20.0168
20.0168
20.0168
20.0168
20.0168
20.0168
20.0168
20.0168
20.0168
20.0168
20.0171
20.0171
20.0171
20.0171
20.0171
20.0176
20.0176
20.0176
20.0176
20.0176
20.0184
20.0184
20.0184
20.0184
20.0184
20.0194
20.0194
20.0194
20.0194
20.0194
20.0206
20.0205
20.0205
20.0205
20.0206
20.0219
20.0219
20.0219
20.0219
20.0219
20.0234
20.0233
20.0233
20.0233
20.0234
20.025
20.0249
20.0249
20.0249
20.025
20.0266
20.0266
20.0266
20.0266
20.0266
20.0283
20.0283
20.0283
20.0283
20.0283
20.0301
20.03
20.03
20.03
20.0301
20.0318
20.0318
20.0318
20.0318
20.0318
20.0335
20.0335
20.0335
20.0335
20.0335
20.0971
20.0971
20.0971
20.0971
20.0971
20.0915
20.0915
20.0915
20.0915
20.0915
20.086
20.086
20.086
20.086
20.086
20.0806
20.0806
20.0806
20.0806
20.0806
20.0754
20.0754
20.0754
20.0754
20.0754
20.0703
20.0703
20.0703
20.0703
20.0703
20.0654
20.0654
20.0654
20.0654
20.0654
20.0606
20.0606
20.0606
20.0606
20.0606
20.0561
20.0561
20.0561
20.0561
20.0561
20.0517
20.0518
20.0518
20.0518
20.0517
20.0476
20.0476
20.0476
20.0476
20.0476
20.0437
20.0437
20.0437
20.0437
20.0437
20.0401
20.0401
20.0401
20.0401
20.0401
20.0367
20.0367
20.0367
20.0367
20.0367
20.0335
20.0335
20.0335
20.0335
20.0335
20.0306
20.0307
20.0307
20.0307
20.0306
20.0281
20.0281
20.0281
20.0281
20.0281
20.0258
20.0258
20.0258
20.0258
20.0258
20.0238
20.0238
20.0238
20.0238
20.0238
20.0221
20.0221
20.0221
20.0221
20.0221
20.0208
20.0208
20.0208
20.0208
20.0208
20.0197
20.0198
20.0198
20.0198
20.0197
20.019
20.019
20.019
20.019
20.019
20.0186
20.0186
20.0186
20.0186
20.0186
20.0185
20.0185
20.0185
20.0185
20.0185
20.0187
20.0187
20.0187
20.0187
20.0187
20.0192
20.0192
20.0192
20.0192
20.0192
20.0199
20.0199
20.0199
20.0199
20.0199
20.0209
20.0209
20.0209
20.0209
20.0209
20.0221
20.0221
20.0221
20.0221
20.022
20.0234
20.0234
20.0234
20.0234
20.0234
20.0249
20.025
20.025
20.025
20.0249
20.0266
20.0266
20.0266
20.0266
20.0266
20.0284
20.0284
20.0284
20.0284
20.0284
20.0302
20.0302
20.0302
20.0302
20.0302
20.0321
20.0321
20.0321
20.0321
20.0321
20.0339
20.034
20.034
20.034
20.0339
20.0358
20.0358
20.0358
20.0358
20.0358
20.0377
20.0377
20.0377
20.0377
20.0377
20.0971
20.0971
20.0971
20.0971
20.0971
20.0915
20.0915
20.0915
20.0915
20.0915
20.086
20.086
20.086
20.086
20.086
20.0806
20.0806
20.0806
20.0806
20.0806
20.0753
20.0753
20.0753
20.0753
20.0753
20.0702
20.0702
20.0702
20.0702
20.0702
20.0653
20.0653
20.0653
20.0653
20.0653
20.0605
20.0606
20.0606
20.0606
20.0605
20.056
20.056
20.056
20.056
20.056
20.0516
20.0516
20.0516
20.0516
20.0516
20.0475
20.0475
20.0475
20.0475
20.0475
20.0436
20.0436
20.0436
20.0436
20.0436
20.0399
20.0399
20.0399
20.0399
20.0399
20.0365
20.0365
20.0365
20.0365
20.0365
20.0333
20.0333
20.0333
20.0333
20.0333
20.0304
20.0304
20.0304
20.0304
20.0304
20.0279
20.0278
20.0278
20.0278
20.0279
20.0256
20.0256
20.0256
20.0256
20.0256
20.0236
20.0236
20.0236
20.0236
20.0236
20.0219
20.0219
20.0219
20.0219
20.0219
20.0206
20.0206
20.0206
20.0206
20.0206
20.0196
20.0196
20.0196
20.0196
20.0196
20.0189
20.0189
20.0189
20.0189
20.0189
20.0185
20.0185
20.0185
20.0185
20.0185
20.0185
20.0184
20.0184
20.0184
20.0185
20.0187
20.0187
20.0187
20.0187
20.0187
20.0193
20.0192
20.0192
20.0192
20.0193
20.0201
20.0201
20.02
20.0201
20.0201
20.0211
20.0211
20.0211
20.0211
20.0211
20.0224
20.0224
20.0224
20.0224
20.0224
20.0239
20.0239
20.0239
20.0239
20.0239
20.0256
20.0256
20.0256
20.0256
20.0256
20.0274
20.0274
20.0274
20.0274
20.0274
20.0293
20.0293
20.0293
20.0293
20.0293
20.0313
20.0312
20.0312
20.0312
20.0313
20.0333
20.0332
20.0332
20.0332
20.0333
20.0353
20.0353
20.0353
20.0353
20.0353
20.0373
20.0373
20.0373
20.0373
20.0373
20.0393
20.0392
20.0392
20.0392
20.0393
20.0971
20.0971
20.0971
20.0971
20.0971
20.0914
20.0914
20.0914
20.0914
20.0914
20.0859
20.0859
20.0859
20.0859
20.0859
20.0805
20.0805
20.0805
20.0805
20.0805
20.0752
20.0752
20.0752
20.0752
20.0752
20.0701
20.0701
20.0701
20.0701
20.0701
20.0651
20.0651
20.0651
20.0651
20.0651
20.0603
20.0603
20.0603
20.0603
20.0603
20.0557
20.0557
20.0557
20.0557
20.0557
20.0513
20.0513
20.0513
20.0513
20.0513
20.0471
20.0471
20.0471
20.0471
20.0471
20.0432
20.0432
20.0432
20.0432
20.0432
20.0394
20.0394
20.0394
20.0394
20.0394
20.0359
20.0359
20.0359
20.0359
20.0359
20.0327
20.0327
20.0327
20.0327
20.0327
20.0298
20.0298
20.0298
20.0298
20.0298
20.0271
20.0271
20.0271
20.0271
20.0271
20.0248
20.0248
20.0248
20.0248
20.0248
20.0227
20.0227
20.0227
20.0227
20.0227
20.021
20.021
20.021
20.021
20.021
20.0196
20.0196
20.0196
20.0196
20.0196
20.0185
20.0185
20.0185
20.0185
20.0185
20.0178
20.0178
20.0178
20.0178
20.0178
20.0174
20.0174
20.0174
20.0174
20.0174
20.0173
20.0173
20.0173
20.0173
20.0173
20.0176
20.0176
20.0176
20.0176
20.0176
20.0182
20.0182
20.0182
20.0182
20.0182
20.019
20.019
20.019
20.019
20.019
20.0202
20.0202
20.0202
20.0202
20.0202
20.0215
20.0215
20.0215
20.0215
20.0215
20.0231
20.0231
20.0231
20.0231
20.0231
20.0249
20.0249
20.0249
20.0249
20.0249
20.0269
20.0269
20.0269
20.0269
20.0269
20.0289
20.0289
20.0289
20.0289
20.0289
20.031
20.031
20.031
20.031
20.031
20.0332
20.0332
20.0332
20.0332
20.0332
20.0354
20.0354
20.0354
20.0354
20.0354
20.0376
20.0375
20.0375
20.0375
20.0376
20.0397
20.0396
20.0396
20.0396
20.0397
20.0971
20.0971
20.0971
20.0971
20.0971
20.0914
20.0914
20.0914
20.0914
20.0914
20.0858
20.0858
20.0858
20.0858
20.0858
20.0803
20.0803
20.0803
20.0803
20.0803
20.075
20.075
20.075
20.075
20.075
20.0698
20.0698
20.0698
20.0698
20.0698
20.0648
20.0648
20.0648
20.0648
20.0648
20.06
20.06
20.06
20.06
20.06
20.0553
20.0553
20.0553
20.0553
20.0553
20.0508
20.0508
20.0508
20.0508
20.0508
20.0466
20.0466
20.0466
20.0466
20.0466
20.0425
20.0425
20.0425
20.0425
20.0425
20.0387
20.0387
20.0387
20.0387
20.0387
20.0351
20.0351
20.0351
20.0351
20.0351
20.0317
20.0318
20.0318
20.0318
20.0317
20.0287
20.0287
20.0287
20.0287
20.0287
20.0259
20.0259
20.0259
20.0259
20.0259
20.0234
20.0234
20.0234
20.0234
20.0234
20.0212
20.0212
20.0212
20.0212
20.0212
20.0194
20.0194
20.0194
20.0194
20.0194
20.0178
20.0178
20.0178
20.0178
20.0178
20.0166
20.0166
20.0166
20.0166
20.0166
20.0158
20.0158
20.0158
20.0158
20.0158
20.0153
20.0152
20.0152
20.0152
20.0153
20.0151
20.0151
20.0151
20.0151
20.0151
20.0153
20.0153
20.0153
20.0153
20.0153
20.0158
20.0158
20.0157
20.0157
20.0158
20.0166
20.0166
20.0166
20.0166
20.0166
20.0177
20.0177
20.0177
20.0177
20.0177
20.0191
20.019
20.019
20.019
20.0191
20.0207
20.0207
20.0207
20.0207
20.0207
20.0225
20.0225
20.0225
20.0225
20.0225
20.0245
20.0245
20.0245
20.0245
20.0245
20.0266
20.0266
20.0266
20.0266
20.0266
20.0289
20.0289
20.0289
20.0289
20.0289
20.0312
20.0311
20.0311
20.0311
20.0312
20.0335
20.0334
20.0334
20.0334
20.0335
20.0357
20.0357
20.0357
20.0357
20.0357
20.038
20.0379
20.0379
20.0379
20.038
20.0971
20.0971
20.0971
20.0971
20.0971
20.0913
20.0913
20.0913
20.0913
20.0913
20.0856
20.0856
20.0856
20.0856
20.0856
20.0801
20.0801
20.0801
20.0801
20.0801
20.0747
20.0747
20.0747
20.0747
20.0747
20.0695
20.0695
20.0695
20.0695
20.0695
20.0644
20.0644
20.0644
20.0644
20.0644
20.0595
20.0595
20.0595
20.0595
20.0595
20.0548
20.0548
20.0548
20.0548
20.0548
20.0502
20.0502
20.0502
20.0502
20.0502
20.0458
20.0458
20.0458
20.0458
20.0458
20.0416
20.0416
20.0416
20.0416
20.0416
20.0377
20.0377
20.0377
20.0377
20.0377
20.0339
20.0339
20.0339
20.0339
20.0339
20.0304
20.0304
20.0304
20.0304
20.0304
20.0272
20.0272
20.0272
20.0272
20.0272
20.0242
20.0242
20.0242
20.0242
20.0242
20.0215
20.0215
20.0215
20.0215
20.0215
20.0192
20.0192
20.0192
20.0192
20.0192
20.0171
20.0171
20.0171
20.0171
20.0171
20.0153
20.0153
20.0153
20.0153
20.0153
20.0139
20.0139
20.0139
20.0139
20.0139
20.0128
20.0128
20.0128
20.0128
20.0128
20.0121
20.0121
20.0121
20.0121
20.0121
20.0117
20.0117
20.0117
20.0117
20.0117
20.0117
20.0117
20.0117
20.0117
20.0117
20.012
20.012
20.012
20.012
20.012
20.0127
20.0126
20.0126
20.0126
20.0127
20.0136
20.0136
20.0136
20.0136
20.0136
20.0149
20.0149
20.0149
20.0149
20.0149
20.0164
20.0164
20.0164
20.0164
20.0164
20.0182
20.0182
20.0182
20.0182
20.0182
20.0202
20.0202
20.0202
20.0202
20.0202
20.0223
20.0223
20.0223
20.0223
20.0223
20.0246
20.0246
20.0246
20.0246
20.0246
20.0269
20.0269
20.0269
20.0269
20.0269
20.0293
20.0293
20.0293
20.0293
20.0293
20.0317
20.0316
20.0316
20.0316
20.0317
20.034
20.0339
20.0339
20.0339
20.034
20.097
20.097
20.097
20.097
20.097
20.0912
20.0912
20.0912
20.0912
20.0912
20.0855
20.0855
20.0855
20.0855
20.0855
20.0799
20.0799
20.0799
20.0799
20.0799
20.0744
20.0744
20.0744
20.0744
20.0744
20.0691
20.0691
20.0691
20.0691
20.0691
20.064
20.064
20.064
20.064
20.064
20.059
20.059
20.059
20.059
20.059
20.0541
20.0541
20.0541
20.0541
20.0541
20.0494
20.0494
20.0494
20.0494
20.0494
20.0449
20.0449
20.0449
20.0449
20.0449
20.0406
20.0406
20.0406
20.0406
20.0406
20.0365
20.0365
20.0365
20.0365
20.0365
20.0326
20.0326
20.0326
20.0326
20.0326
20.0289
20.0289
20.0289
20.0289
20.0289
20.0254
20.0254
20.0254
20.0254
20.0254
20.0222
20.0222
20.0222
20.0222
20.0222
20.0192
20.0192
20.0192
20.0192
20.0192
20.0166
20.0166
20.0166
20.0166
20.0166
20.0142
20.0142
20.0142
20.0142
20.0142
20.0121
20.0121
20.0121
20.0121
20.0121
20.0104
20.0104
20.0104
20.0104
20.0104
20.009
20.009
20.009
20.009
20.009
20.0079
20.0079
20.0079
20.0079
20.0079
20.0072
20.0072
20.0072
20.0072
20.0072
20.0069
20.0069
20.0069
20.0069
20.0069
20.0069
20.0069
20.0069
20.0069
20.0069
20.0073
20.0073
20.0073
20.0073
20.0073
20.008
20.008
20.008
20.008
20.008
20.009
20.009
20.009
20.009
20.009
20.0104
20.0104
20.0104
20.0104
20.0104
20.012
20.012
20.012
20.012
20.012
20.0138
20.0138
20.0138
20.0138
20.0138
20.0159
20.0159
20.0159
20.0159
20.0159
20.0181
20.018
20.018
20.018
20.0181
20.0204
20.0203
20.0203
20.0203
20.0204
20.0227
20.0227
20.0227
20.0227
20.0227
20.0251
20.0251
20.0251
20.0251
20.0251
20.0274
20.0274
20.0274
20.0274
20.0274
20.097
20.097
20.097
20.097
20.097
20.0911
20.0911
20.0911
20.0911
20.0911
20.0853
20.0853
20.0853
20.0853
20.0853
20.0797
20.0797
20.0797
20.0797
20.0797
20.0741
20.0741
20.0741
20.0741
20.0741
20.0687
20.0687
20.0687
20.0687
20.0687
20.0635
20.0635
20.0635
20.0635
20.0635
20.0584
20.0584
20.0584
20.0584
20.0584
20.0534
20.0534
20.0534
20.0534
20.0534
20.0486
20.0486
20.0486
20.0486
20.0486
20.0439
20.0439
20.0439
20.0439
20.0439
20.0394
20.0394
20.0394
20.0394
20.0394
20.0351
20.0351
20.0351
20.0351
20.0351
20.031
20.031
20.031
20.031
20.031
20.027
20.027
20.027
20.027
20.027
20.0233
20.0233
20.0233
20.0233
20.0233
20.0198
20.0198
20.0198
20.0198
20.0198
20.0165
20.0165
20.0165
20.0165
20.0165
20.0135
20.0135
20.0135
20.0135
20.0135
20.0108
20.0108
20.0108
20.0108
20.0108
20.0083
20.0083
20.0083
20.0083
20.0083
20.0062
20.0062
20.0062
20.0062
20.0062
20.0043
20.0043
20.0043
20.0043
20.0043
20.0028
20.0028
20.0028
20.0028
20.0028
20.0017
20.0017
20.0017
20.0017
20.0017
20.0009
20.0009
20.0009
20.0009
20.0009
20.0004
20.0004
20.0004
20.0004
20.0004
20.0004
20.0004
20.0004
20.0004
20.0004
20.0007
20.0007
20.0007
20.0007
20.0007
20.0013
20.0013
20.0013
20.0013
20.0013
20.0023
20.0023
20.0023
20.0023
20.0023
20.0036
20.0036
20.0036
20.0036
20.0036
20.0052
20.0051
20.0051
20.0051
20.0052
20.007
20.007
20.007
20.007
20.007
20.009
20.009
20.009
20.009
20.009
20.0111
20.0111
20.0111
20.0111
20.0111
20.0134
20.0134
20.0134
20.0134
20.0134
20.0157
20.0157
20.0157
20.0157
20.0157
20.018
20.018
20.018
20.018
20.018
20.097
20.097
20.097
20.097
20.097
20.091
20.091
20.091
20.091
20.091
20.0851
20.0851
20.0851
20.0851
20.0851
20.0794
20.0794
20.0794
20.0794
20.0794
20.0738
20.0738
20.0738
20.0738
20.0738
20.0683
20.0683
20.0683
20.0683
20.0683
20.0629
20.0629
20.0629
20.0629
20.0629
20.0577
20.0577
20.0577
20.0577
20.0577
20.0526
20.0526
20.0526
20.0526
20.0526
20.0476
20.0476
20.0476
20.0476
20.0476
20.0428
20.0428
20.0428
20.0428
20.0428
20.0381
20.0381
20.0381
20.0381
20.0381
20.0336
20.0336
20.0336
20.0336
20.0336
20.0292
20.0292
20.0292
20.0292
20.0292
20.025
20.025
20.025
20.025
20.025
20.021
20.021
20.021
20.021
20.021
20.0171
20.0171
20.0171
20.0171
20.0171
20.0135
20.0135
20.0135
20.0135
20.0135
20.01
20.01
20.01
20.01
20.01
20.0068
20.0068
20.0068
20.0068
20.0068
20.0039
20.0039
20.0039
20.0039
20.0039
20.0012
20.0012
20.0012
20.0012
20.0012
19.9988
19.9988
19.9988
19.9988
19.9988
19.9968
19.9968
19.9968
19.9968
19.9968
19.995
19.995
19.995
19.995
19.995
19.9936
19.9936
19.9936
19.9936
19.9936
19.9925
19.9925
19.9925
19.9925
19.9925
19.9918
19.9918
19.9918
19.9918
19.9918
19.9915
19.9915
19.9915
19.9915
19.9915
19.9916
19.9916
19.9916
19.9916
19.9916
19.992
19.992
19.992
19.992
19.992
19.9928
19.9928
19.9928
19.9928
19.9928
19.9939
19.9939
19.9939
19.9939
19.9939
19.9953
19.9953
19.9953
19.9953
19.9953
19.997
19.9969
19.9969
19.9969
19.997
19.9988
19.9988
19.9988
19.9988
19.9988
20.0009
20.0008
20.0008
20.0008
20.0009
20.003
20.003
20.003
20.003
20.003
20.0053
20.0052
20.0052
20.0052
20.0053
20.0969
20.0969
20.0969
20.0969
20.0969
20.0909
20.0909
20.0909
20.0909
20.0909
20.0849
20.0849
20.0849
20.0849
20.0849
20.0791
20.0791
20.0791
20.0791
20.0791
20.0734
20.0734
20.0734
20.0734
20.0734
20.0678
20.0678
20.0678
20.0678
20.0678
20.0624
20.0624
20.0624
20.0624
20.0624
20.057
20.057
20.057
20.057
20.057
20.0518
20.0518
20.0518
20.0518
20.0518
20.0466
20.0466
20.0466
20.0466
20.0466
20.0416
20.0416
20.0416
20.0416
20.0416
20.0367
20.0367
20.0367
20.0367
20.0367
20.032
20.032
20.032
20.032
20.032
20.0273
20.0273
20.0273
20.0273
20.0273
20.0228
20.0228
20.0228
20.0228
20.0228
20.0184
20.0184
20.0184
20.0184
20.0184
20.0142
20.0142
20.0142
20.0142
20.0142
20.0101
20.0101
20.0101
20.0101
20.0101
20.0062
20.0062
20.0062
20.0062
20.0062
20.0025
20.0025
20.0025
20.0025
20.0025
19.9989
19.999
19.999
19.999
19.9989
19.9956
19.9956
19.9956
19.9956
19.9956
19.9926
19.9926
19.9926
19.9926
19.9926
19.9898
19.9898
19.9898
19.9898
19.9898
19.9872
19.9872
19.9872
19.9872
19.9872
19.985
19.985
19.985
19.985
19.985
19.9831
19.9831
19.9831
19.9831
19.9831
19.9816
19.9816
19.9816
19.9816
19.9816
19.9804
19.9804
19.9804
19.9804
19.9804
19.9796
19.9796
19.9796
19.9796
19.9796
19.9792
19.9792
19.9792
19.9792
19.9792
19.9792
19.9792
19.9792
19.9792
19.9792
19.9796
19.9796
19.9796
19.9796
19.9796
19.9803
19.9803
19.9803
19.9803
19.9803
19.9814
19.9814
19.9814
19.9814
19.9814
19.9828
19.9828
19.9828
19.9828
19.9828
19.9845
19.9845
19.9845
19.9845
19.9845
19.9865
19.9864
19.9864
19.9864
19.9865
19.9886
19.9886
19.9886
19.9886
19.9886
20.0969
20.0969
20.0969
20.0969
20.0969
20.0908
20.0908
20.0908
20.0908
20.0908
20.0848
20.0848
20.0848
20.0848
20.0848
20.0789
20.0789
20.0789
20.0789
20.0789
20.0731
20.0731
20.0731
20.0731
20.0731
20.0674
20.0674
20.0674
20.0674
20.0674
20.0618
20.0618
20.0618
20.0618
20.0618
20.0563
20.0563
20.0563
20.0563
20.0563
20.0509
20.0509
20.0509
20.0509
20.0509
20.0456
20.0456
20.0456
20.0456
20.0456
20.0404
20.0404
20.0404
20.0404
20.0404
20.0353
20.0353
20.0353
20.0353
20.0353
20.0303
20.0303
20.0303
20.0303
20.0303
20.0253
20.0253
20.0253
20.0253
20.0253
20.0205
20.0205
20.0205
20.0205
20.0205
20.0157
20.0157
20.0157
20.0157
20.0157
20.0111
20.0111
20.0111
20.0111
20.0111
20.0065
20.0065
20.0065
20.0065
20.0065
20.0021
20.0021
20.0021
20.0021
20.0021
19.9977
19.9977
19.9977
19.9977
19.9977
19.9935
19.9935
19.9935
19.9935
19.9935
19.9895
19.9895
19.9895
19.9895
19.9895
19.9856
19.9856
19.9856
19.9856
19.9856
19.9819
19.9819
19.9819
19.9819
19.9819
19.9784
19.9784
19.9784
19.9784
19.9784
19.9752
19.9752
19.9752
19.9752
19.9752
19.9722
19.9722
19.9722
19.9722
19.9722
19.9695
19.9695
19.9695
19.9695
19.9695
19.9672
19.9672
19.9672
19.9672
19.9672
19.9652
19.9652
19.9652
19.9652
19.9652
19.9636
19.9636
19.9636
19.9636
19.9636
19.9624
19.9624
19.9624
19.9624
19.9624
19.9616
19.9616
19.9616
19.9616
19.9616
19.9613
19.9613
19.9613
19.9613
19.9613
19.9614
19.9614
19.9614
19.9614
19.9614
19.962
19.9619
19.9619
19.9619
19.962
19.9629
19.9628
19.9628
19.9628
19.9629
19.9643
19.9641
19.9641
19.9641
19.9643
19.966
19.9658
19.9658
19.9658
19.966
20.0969
20.0969
20.0969
20.0969
20.0969
20.0907
20.0907
20.0907
20.0907
20.0907
20.0846
20.0846
20.0846
20.0846
20.0846
20.0786
20.0786
20.0786
20.0786
20.0786
20.0727
20.0727
20.0727
20.0727
20.0727
20.0669
20.0669
20.0669
20.0669
20.0669
20.0612
20.0612
20.0612
20.0612
20.0612
20.0556
20.0556
20.0556
20.0556
20.0556
20.0501
20.0501
20.0501
20.0501
20.0501
20.0446
20.0446
20.0446
20.0446
20.0446
20.0392
20.0392
20.0392
20.0392
20.0392
20.0339
20.0339
20.0339
20.0339
20.0339
20.0286
20.0286
20.0286
20.0286
20.0286
20.0234
20.0234
20.0234
20.0234
20.0234
20.0182
20.0182
20.0182
20.0182
20.0182
20.013
20.013
20.013
20.013
20.013
20.0079
20.0079
20.0079
20.0079
20.0079
20.0028
20.0028
20.0028
20.0028
20.0028
19.9978
19.9978
19.9978
19.9978
19.9978
19.9927
19.9928
19.9928
19.9928
19.9927
19.9878
19.9878
19.9878
19.9878
19.9878
19.9829
19.9829
19.9829
19.9829
19.9829
19.978
19.978
19.978
19.978
19.978
19.9733
19.9733
19.9733
19.9733
19.9733
19.9686
19.9686
19.9686
19.9686
19.9686
19.9641
19.9641
19.9641
19.9641
19.9641
19.9597
19.9597
19.9597
19.9597
19.9597
19.9555
19.9556
19.9556
19.9556
19.9555
19.9516
19.9516
19.9516
19.9516
19.9516
19.948
19.948
19.948
19.948
19.948
19.9447
19.9447
19.9447
19.9447
19.9447
19.9417
19.9418
19.9418
19.9418
19.9417
19.9393
19.9393
19.9393
19.9393
19.9393
19.9374
19.9374
19.9374
19.9374
19.9374
19.9361
19.9361
19.9361
19.9361
19.9361
19.9354
19.9355
19.9355
19.9355
19.9354
19.9356
19.9357
19.9357
19.9357
19.9356
19.9365
19.9367
19.9367
19.9367
19.9365
19.9383
19.9385
19.9385
19.9385
19.9383
20.0968
20.0969
20.0969
20.0969
20.0968
20.0906
20.0906
20.0906
20.0906
20.0906
20.0844
20.0844
20.0844
20.0844
20.0844
20.0783
20.0783
20.0783
20.0783
20.0783
20.0724
20.0724
20.0724
20.0724
20.0724
20.0665
20.0665
20.0665
20.0665
20.0665
20.0607
20.0607
20.0607
20.0607
20.0607
20.055
20.055
20.055
20.055
20.055
20.0493
20.0493
20.0493
20.0493
20.0493
20.0437
20.0436
20.0436
20.0436
20.0437
20.0381
20.0381
20.0381
20.0381
20.0381
20.0325
20.0325
20.0325
20.0325
20.0325
20.027
20.027
20.027
20.027
20.027
20.0214
20.0214
20.0214
20.0214
20.0214
20.0159
20.0159
20.0159
20.0159
20.0159
20.0103
20.0103
20.0103
20.0103
20.0103
20.0047
20.0047
20.0047
20.0047
20.0047
19.9991
19.9991
19.9991
19.9991
19.9991
19.9934
19.9934
19.9934
19.9934
19.9934
19.9877
19.9877
19.9877
19.9877
19.9877
19.9819
19.9819
19.9819
19.9819
19.9819
19.976
19.976
19.976
19.976
19.976
19.9701
19.9701
19.9701
19.9701
19.9701
19.9641
19.9641
19.9641
19.9641
19.9641
19.958
19.958
19.958
19.958
19.958
19.9519
19.9519
19.9519
19.9519
19.9519
19.9458
19.9458
19.9458
19.9458
19.9458
19.9397
19.9397
19.9397
19.9397
19.9397
19.9337
19.9337
19.9337
19.9337
19.9337
19.9277
19.9278
19.9278
19.9278
19.9277
19.922
19.922
19.922
19.922
19.922
19.9165
19.9166
19.9166
19.9166
19.9165
19.9114
19.9114
19.9114
19.9114
19.9114
19.9068
19.9067
19.9067
19.9067
19.9068
19.9026
19.9025
19.9025
19.9025
19.9026
19.8991
19.8988
19.8988
19.8988
19.8991
19.8962
19.8958
19.8958
19.8958
19.8962
19.8943
19.8937
19.8936
19.8937
19.8943
19.8935
19.8927
19.8927
19.8927
19.8935
20.0968
20.0968
20.0968
20.0968
20.0968
20.0905
20.0905
20.0905
20.0905
20.0905
20.0842
20.0842
20.0842
20.0842
20.0842
20.0781
20.0781
20.0781
20.0781
20.0781
20.072
20.072
20.072
20.072
20.072
20.0661
20.0661
20.0661
20.0661
20.0661
20.0602
20.0602
20.0602
20.0602
20.0602
20.0543
20.0543
20.0543
20.0543
20.0543
20.0485
20.0485
20.0485
20.0485
20.0485
20.0428
20.0427
20.0427
20.0427
20.0428
20.037
20.037
20.037
20.037
20.037
20.0312
20.0312
20.0312
20.0312
20.0312
20.0254
20.0254
20.0254
20.0254
20.0254
20.0196
20.0196
20.0196
20.0196
20.0196
20.0137
20.0137
20.0137
20.0137
20.0137
20.0077
20.0077
20.0077
20.0077
20.0077
20.0017
20.0017
20.0017
20.0017
20.0017
19.9955
19.9955
19.9955
19.9955
19.9955
19.9891
19.9891
19.9891
19.9891
19.9891
19.9826
19.9826
19.9826
19.9826
19.9826
19.976
19.976
19.976
19.976
19.976
19.9691
19.9691
19.9691
19.9691
19.9691
19.9619
19.9619
19.9619
19.9619
19.9619
19.9545
19.9545
19.9545
19.9545
19.9545
19.9468
19.9469
19.9469
19.9469
19.9468
19.9389
19.9389
19.9389
19.9389
19.9389
19.9307
19.9307
19.9307
19.9307
19.9307
19.9221
19.9222
19.9222
19.9222
19.9221
19.9134
19.9134
19.9134
19.9134
19.9134
19.9044
19.9045
19.9045
19.9045
19.9044
19.8953
19.8954
19.8954
19.8954
19.8953
19.8862
19.8863
19.8863
19.8863
19.8862
19.8773
19.8775
19.8775
19.8775
19.8773
19.8688
19.869
19.8691
19.869
19.8688
19.8611
19.8615
19.8615
19.8615
19.8611
19.8548
19.8554
19.8554
19.8554
19.8548
19.8504
19.8512
19.8513
19.8512
19.8504
19.8486
19.8497
19.8498
19.8497
19.8486
19.8501
19.8514
19.8515
19.8514
19.8501
20.0968
20.0968
20.0968
20.0968
20.0968
20.0904
20.0904
20.0904
20.0904
20.0904
20.0841
20.0841
20.0841
20.0841
20.0841
20.0779
20.0779
20.0779
20.0779
20.0779
20.0718
20.0718
20.0718
20.0718
20.0718
20.0657
20.0657
20.0657
20.0657
20.0657
20.0597
20.0597
20.0597
20.0597
20.0597
20.0538
20.0538
20.0538
20.0538
20.0538
20.0479
20.0479
20.0479
20.0479
20.0479
20.042
20.042
20.042
20.042
20.042
20.036
20.036
20.036
20.036
20.036
20.0301
20.0301
20.0301
20.0301
20.0301
20.024
20.024
20.024
20.024
20.024
20.0179
20.0179
20.0179
20.0179
20.0179
20.0117
20.0117
20.0117
20.0117
20.0117
20.0054
20.0054
20.0054
20.0054
20.0054
19.9989
19.9989
19.9989
19.9989
19.9989
19.9922
19.9922
19.9922
19.9922
19.9922
19.9852
19.9852
19.9852
19.9852
19.9852
19.9779
19.9779
19.9779
19.9779
19.9779
19.9704
19.9704
19.9704
19.9704
19.9704
19.9624
19.9624
19.9624
19.9624
19.9624
19.954
19.954
19.954
19.954
19.954
19.9451
19.9451
19.9451
19.9451
19.9451
19.9356
19.9356
19.9356
19.9356
19.9356
19.9255
19.9255
19.9255
19.9255
19.9255
19.9148
19.9148
19.9148
19.9148
19.9148
19.9033
19.9033
19.9033
19.9033
19.9033
19.891
19.8911
19.8911
19.8911
19.891
19.878
19.8781
19.8781
19.8781
19.878
19.8642
19.8643
19.8643
19.8643
19.8642
19.8496
19.8497
19.8497
19.8497
19.8496
19.8343
19.8343
19.8343
19.8343
19.8343
19.8183
19.8181
19.8181
19.8181
19.8183
19.8014
19.801
19.801
19.801
19.8014
19.7836
19.7827
19.7827
19.7827
19.7836
19.7646
19.7631
19.7631
19.7631
19.7646
19.7454
19.7433
19.7432
19.7433
19.7454
19.7293
19.7265
19.7265
19.7265
19.7293
20.0968
20.0968
20.0968
20.0968
20.0968
20.0903
20.0903
20.0903
20.0903
20.0903
20.084
20.084
20.084
20.084
20.084
20.0777
20.0777
20.0777
20.0777
20.0777
20.0715
20.0715
20.0715
20.0715
20.0715
20.0654
20.0654
20.0654
20.0654
20.0654
20.0594
20.0594
20.0594
20.0594
20.0594
20.0534
20.0534
20.0534
20.0534
20.0534
20.0473
20.0473
20.0473
20.0473
20.0473
20.0413
20.0413
20.0413
20.0413
20.0413
20.0353
20.0352
20.0352
20.0352
20.0353
20.0291
20.0291
20.0291
20.0291
20.0291
20.0229
20.0229
20.0229
20.0229
20.0229
20.0166
20.0166
20.0166
20.0166
20.0166
20.0101
20.0101
20.0101
20.0101
20.0101
20.0035
20.0034
20.0034
20.0034
20.0035
19.9966
19.9965
19.9965
19.9965
19.9966
19.9894
19.9893
19.9893
19.9893
19.9894
19.9818
19.9818
19.9818
19.9818
19.9818
19.9739
19.9739
19.9739
19.9739
19.9739
19.9655
19.9654
19.9654
19.9654
19.9655
19.9565
19.9564
19.9564
19.9564
19.9565
19.9468
19.9468
19.9468
19.9468
19.9468
19.9364
19.9363
19.9363
19.9363
19.9364
19.925
19.925
19.925
19.925
19.925
19.9126
19.9126
19.9126
19.9126
19.9126
19.8991
19.8991
19.8991
19.8991
19.8991
19.8841
19.8841
19.8841
19.8841
19.8841
19.8676
19.8677
19.8677
19.8677
19.8676
19.8494
19.8495
19.8495
19.8495
19.8494
19.8294
19.8296
19.8296
19.8296
19.8294
19.8074
19.8077
19.8077
19.8077
19.8074
19.7837
19.7841
19.7841
19.7841
19.7837
19.7585
19.7592
19.7593
19.7592
19.7585
19.733
19.7342
19.7343
19.7342
19.733
19.7091
19.711
19.7111
19.711
19.7091
19.6892
19.6921
19.6922
19.6921
19.6892
19.6728
19.6762
19.6762
19.6762
19.6728
19.6688
19.6724
19.6725
19.6724
19.6688
20.0968
20.0968
20.0968
20.0968
20.0968
20.0903
20.0903
20.0903
20.0903
20.0903
20.0839
20.0839
20.0839
20.0839
20.0839
20.0776
20.0776
20.0776
20.0776
20.0776
20.0714
20.0714
20.0714
20.0714
20.0714
20.0652
20.0652
20.0652
20.0652
20.0652
20.0591
20.0591
20.0591
20.0591
20.0591
20.0531
20.0531
20.0531
20.0531
20.0531
20.047
20.047
20.047
20.047
20.047
20.0409
20.0409
20.0409
20.0409
20.0409
20.0347
20.0347
20.0347
20.0347
20.0347
20.0285
20.0285
20.0285
20.0285
20.0285
20.0222
20.0222
20.0221
20.0222
20.0222
20.0157
20.0157
20.0157
20.0157
20.0157
20.009
20.009
20.009
20.009
20.009
20.0021
20.0021
20.0021
20.0021
20.0021
19.9949
19.9949
19.9949
19.9949
19.9949
19.9874
19.9873
19.9873
19.9873
19.9874
19.9794
19.9794
19.9794
19.9794
19.9794
19.9709
19.9709
19.9709
19.9709
19.9709
19.9618
19.9618
19.9618
19.9618
19.9618
19.9519
19.9519
19.9519
19.9519
19.9519
19.9412
19.9412
19.9412
19.9412
19.9412
19.9294
19.9294
19.9294
19.9294
19.9294
19.9164
19.9163
19.9163
19.9163
19.9164
19.9018
19.9018
19.9018
19.9018
19.9018
19.8854
19.8854
19.8854
19.8854
19.8854
19.8668
19.8668
19.8668
19.8668
19.8668
19.8456
19.8456
19.8456
19.8456
19.8456
19.8212
19.8212
19.8213
19.8212
19.8212
19.793
19.7932
19.7932
19.7932
19.793
19.7604
19.7606
19.7606
19.7606
19.7604
19.7224
19.7226
19.7226
19.7226
19.7224
19.6777
19.6778
19.6777
19.6778
19.6777
19.6243
19.6238
19.6237
19.6238
19.6243
19.5579
19.5564
19.5562
19.5564
19.5579
19.4691
19.4661
19.4659
19.4661
19.4691
19.3561
19.3525
19.3523
19.3525
19.3561
19.2141
19.2084
19.2085
19.2084
19.2141
20.0968
20.0968
20.0968
20.0968
20.0968
20.0902
20.0902
20.0902
20.0902
20.0902
20.0838
20.0838
20.0838
20.0838
20.0838
20.0775
20.0775
20.0775
20.0775
20.0775
20.0713
20.0713
20.0713
20.0713
20.0713
20.0651
20.0651
20.0651
20.0651
20.0651
20.059
20.059
20.059
20.059
20.059
20.0529
20.0529
20.0529
20.0529
20.0529
20.0468
20.0468
20.0468
20.0468
20.0468
20.0407
20.0407
20.0407
20.0407
20.0407
20.0345
20.0345
20.0345
20.0345
20.0345
20.0282
20.0282
20.0282
20.0282
20.0282
20.0218
20.0218
20.0218
20.0218
20.0218
20.0153
20.0152
20.0152
20.0152
20.0153
20.0085
20.0085
20.0085
20.0085
20.0085
20.0015
20.0014
20.0014
20.0014
20.0015
19.9941
19.9941
19.9941
19.9941
19.9941
19.9864
19.9864
19.9864
19.9864
19.9864
19.9782
19.9781
19.9781
19.9781
19.9782
19.9694
19.9693
19.9693
19.9693
19.9694
19.9599
19.9598
19.9598
19.9598
19.9599
19.9496
19.9495
19.9495
19.9495
19.9496
19.9382
19.938
19.938
19.938
19.9382
19.9255
19.9253
19.9253
19.9253
19.9255
19.9112
19.911
19.911
19.911
19.9112
19.895
19.8948
19.8948
19.8948
19.895
19.8764
19.8761
19.8761
19.8761
19.8764
19.8547
19.8544
19.8544
19.8544
19.8547
19.8291
19.8288
19.8288
19.8288
19.8291
19.7987
19.7982
19.7983
19.7982
19.7987
19.7618
19.7614
19.7614
19.7614
19.7618
19.7168
19.7164
19.7165
19.7164
19.7168
19.6613
19.6611
19.6612
19.6611
19.6613
19.5928
19.5932
19.5934
19.5932
19.5928
19.511
19.5127
19.5129
19.5127
19.511
19.418
19.4214
19.4216
19.4214
19.418
19.3307
19.3377
19.3379
19.3377
19.3307
19.2196
19.2256
19.2255
19.2256
19.2196
19.1766
19.1907
19.1908
19.1907
19.1766
20.0968
20.0968
20.0968
20.0968
20.0968
20.0903
20.0902
20.0902
20.0902
20.0903
20.0839
20.0839
20.0839
20.0839
20.0839
20.0776
20.0776
20.0776
20.0776
20.0776
20.0714
20.0714
20.0714
20.0714
20.0714
20.0652
20.0652
20.0652
20.0652
20.0652
20.0591
20.0591
20.0591
20.0591
20.0591
20.0531
20.0531
20.0531
20.0531
20.0531
20.047
20.047
20.047
20.047
20.047
20.0409
20.0409
20.0409
20.0409
20.0409
20.0348
20.0348
20.0348
20.0348
20.0348
20.0286
20.0286
20.0286
20.0286
20.0286
20.0222
20.0222
20.0222
20.0222
20.0222
20.0158
20.0158
20.0158
20.0158
20.0158
20.0091
20.0091
20.0091
20.0091
20.0091
20.0022
20.0022
20.0022
20.0022
20.0022
19.995
19.995
19.995
19.995
19.995
19.9874
19.9874
19.9874
19.9874
19.9874
19.9794
19.9794
19.9794
19.9794
19.9794
19.9708
19.9708
19.9708
19.9708
19.9708
19.9615
19.9615
19.9615
19.9615
19.9615
19.9515
19.9515
19.9514
19.9515
19.9515
19.9404
19.9404
19.9404
19.9404
19.9404
19.9281
19.928
19.928
19.928
19.9281
19.9142
19.9142
19.9142
19.9142
19.9142
19.8984
19.8983
19.8983
19.8983
19.8984
19.88
19.88
19.88
19.88
19.88
19.8585
19.8585
19.8585
19.8585
19.8585
19.8327
19.8327
19.8327
19.8327
19.8327
19.8012
19.8012
19.8012
19.8012
19.8012
19.7618
19.7617
19.7618
19.7617
19.7618
19.711
19.7108
19.7109
19.7108
19.711
19.6432
19.6429
19.643
19.6429
19.6432
19.5486
19.5481
19.5483
19.5481
19.5486
19.4076
19.4066
19.4068
19.4066
19.4076
19.1834
19.1825
19.1826
19.1825
19.1834
18.7707
18.7699
18.7697
18.7699
18.7707
18.063
18.0655
18.0643
18.0655
18.063
16.5182
16.5104
16.5079
16.5104
16.5182
20.0395
20.0395
20.0395
20.0395
20.0395
20.0438
20.0438
20.0438
20.0438
20.0438