/*--------------------------------*- C++ -*----------------------------------*\
  =========                 |
  \\      /  F ield         | OpenFOAM: The Open Source CFD Toolbox
   \\    /   O peration     | Website:  https://openfoam.org
    \\  /    A nd           | Version:  9
     \\/     M anipulation  |
\*---------------------------------------------------------------------------*/
FoamFile
{
    format      ascii;
    class       surfaceScalarField;
    location    "0.5";
    object      phi;
}
// * * * * * * * * * * * * * * * * * * * * * * * * * * * * * * * * * * * * * //

dimensions      [0 3 -1 0 0 0 0];

internalField   nonuniform List<scalar> 
12376
(
3.65193e-10
0.000256071
1.16591e-07
-2.00005e-12
0.000256071
1.17018e-07
7.25453e-12
0.00025607
1.16994e-07
-3.63934e-10
0.000256071
1.17105e-07
0.000256071
1.16739e-07
-3.82448e-10
0.000255934
1.37066e-07
-2.73679e-11
0.000255934
1.36482e-07
3.46953e-11
0.000255934
1.36394e-07
3.83816e-10
0.000255934
1.36552e-07
0.000255934
1.37186e-07
-2.67224e-10
0.000255727
2.0778e-07
-1.71913e-11
0.000255726
2.07658e-07
2.56439e-11
0.000255726
2.07675e-07
2.68289e-10
0.000255726
2.07695e-07
0.000255727
2.07848e-07
-1.45758e-10
0.000255401
3.25969e-07
-2.81403e-11
0.0002554
3.26148e-07
3.5257e-11
0.0002554
3.26149e-07
1.4677e-10
0.0002554
3.26146e-07
0.000255401
3.25979e-07
-1.06464e-10
0.000254928
4.73748e-07
-6.50687e-11
0.000254926
4.73832e-07
7.49844e-11
0.000254926
4.73722e-07
1.07932e-10
0.000254926
4.73815e-07
0.000254927
4.73734e-07
-7.28953e-11
0.000254289
6.38686e-07
-7.63976e-11
0.000254288
6.3873e-07
8.58509e-11
0.000254287
6.38552e-07
7.51621e-11
0.000254288
6.3872e-07
0.000254289
6.38682e-07
-3.77966e-11
0.000253473
8.16093e-07
-8.19454e-11
0.000253471
8.16175e-07
9.13343e-11
0.000253471
8.15954e-07
4.10676e-11
0.000253471
8.16177e-07
0.000253473
8.16104e-07
-3.76765e-12
0.000252468
1.00531e-06
-8.5448e-11
0.000252466
1.00544e-06
9.47187e-11
0.000252466
1.00517e-06
7.90887e-12
0.000252466
1.00544e-06
0.000252468
1.00533e-06
3.15535e-11
0.000251259
1.20824e-06
-8.72698e-11
0.000251258
1.2084e-06
9.62539e-11
0.000251258
1.20809e-06
-2.69072e-11
0.000251258
1.20841e-06
0.000251259
1.20825e-06
7.09803e-11
0.000249832
1.42688e-06
-8.63867e-11
0.000249831
1.42708e-06
9.54253e-11
0.000249831
1.42671e-06
-6.62153e-11
0.000249831
1.42708e-06
0.000249832
1.42688e-06
1.16273e-10
0.000248169
1.66365e-06
-8.89135e-11
0.000248167
1.66391e-06
9.36456e-11
0.000248167
1.66348e-06
-1.11684e-10
0.000248167
1.66391e-06
0.000248169
1.66365e-06
1.69038e-10
0.000246248
1.92077e-06
-9.18657e-11
0.000246246
1.92108e-06
9.68148e-11
0.000246246
1.92058e-06
-1.64665e-10
0.000246246
1.92108e-06
0.000246248
1.92075e-06
2.30711e-10
0.000244049
2.19828e-06
-9.33638e-11
0.000244048
2.19867e-06
9.89048e-11
0.000244048
2.19809e-06
-2.26513e-10
0.000244048
2.19867e-06
0.000244049
2.19826e-06
3.02603e-10
0.00024155
2.49904e-06
-9.34597e-11
0.000241549
2.49953e-06
9.99817e-11
0.000241549
2.49886e-06
-2.98424e-10
0.000241549
2.49953e-06
0.00024155
2.49904e-06
3.85228e-10
0.000238729
2.82021e-06
-9.20747e-11
0.000238729
2.8208e-06
9.96263e-11
0.000238729
2.82004e-06
-3.80922e-10
0.000238729
2.8208e-06
0.000238729
2.82021e-06
4.78909e-10
0.000235566
3.16309e-06
-8.93758e-11
0.000235565
3.1638e-06
9.76911e-11
0.000235566
3.16294e-06
-4.74414e-10
0.000235565
3.1638e-06
0.000235566
3.16308e-06
5.83642e-10
0.000232039
3.52594e-06
-8.53602e-11
0.000232039
3.52679e-06
9.41037e-11
0.00023204
3.52582e-06
-5.78933e-10
0.000232039
3.52678e-06
0.000232039
3.52593e-06
6.98873e-10
0.000228133
3.90592e-06
-7.99836e-11
0.000228133
3.90695e-06
8.88631e-11
0.000228134
3.90587e-06
-6.93951e-10
0.000228133
3.90694e-06
0.000228133
3.90592e-06
8.24026e-10
0.00022383
4.30207e-06
-7.32464e-11
0.000223831
4.30328e-06
8.20342e-11
0.000223831
4.30209e-06
-8.18947e-10
0.000223831
4.30328e-06
0.00022383
4.30207e-06
9.57475e-10
0.00021912
4.70838e-06
-6.50462e-11
0.000219122
4.70981e-06
7.3588e-11
0.000219123
4.70851e-06
-9.52362e-10
0.000219122
4.70982e-06
0.00021912
4.70839e-06
1.09807e-09
0.000213996
5.12295e-06
-5.53124e-11
0.000213998
5.12462e-06
6.36847e-11
0.000214
5.12321e-06
-1.09304e-09
0.000213998
5.12463e-06
0.000213996
5.12296e-06
1.24393e-09
0.000208455
5.54028e-06
-4.40918e-11
0.000208458
5.54222e-06
5.22348e-11
0.000208459
5.54069e-06
-1.23908e-09
0.000208457
5.54222e-06
0.000208455
5.54029e-06
1.39293e-09
0.000202498
5.95495e-06
-3.1302e-11
0.000202502
5.95718e-06
3.94402e-11
0.000202503
5.95554e-06
-1.38829e-09
0.000202502
5.95718e-06
0.000202498
5.95496e-06
1.54286e-09
0.000196135
6.36177e-06
-1.7244e-11
0.000196139
6.3643e-06
2.52456e-11
0.000196141
6.36256e-06
-1.53842e-09
0.000196139
6.3643e-06
0.000196135
6.36176e-06
1.69132e-09
0.000189378
6.75519e-06
-1.91374e-12
0.000189383
6.75804e-06
1.00383e-11
0.000189384
6.75621e-06
-1.68704e-09
0.000189383
6.75803e-06
0.000189378
6.75517e-06
1.83574e-09
0.000182247
7.12937e-06
1.42392e-11
0.000182252
7.13255e-06
-6.11662e-12
0.000182254
7.13064e-06
-1.83151e-09
0.000182252
7.13254e-06
0.000182247
7.12936e-06
1.97386e-09
0.000174766
7.47947e-06
3.10329e-11
0.000174771
7.48299e-06
-2.29272e-11
0.000174773
7.48101e-06
-1.96954e-09
0.000174771
7.48299e-06
0.000174766
7.47947e-06
2.1035e-09
0.000166963
7.80063e-06
4.85507e-11
0.000166969
7.80448e-06
-3.9821e-11
0.00016697
7.80245e-06
-2.0989e-09
0.000166969
7.80448e-06
0.000166963
7.80064e-06
2.22268e-09
0.000158872
8.08814e-06
6.64093e-11
0.000158878
8.09231e-06
-5.67895e-11
0.00015888
8.09024e-06
-2.21759e-09
0.000158878
8.09232e-06
0.000158873
8.08816e-06
2.33023e-09
0.00015053
8.33972e-06
8.46181e-11
0.000150536
8.34418e-06
-7.35721e-11
0.000150538
8.34208e-06
-2.32455e-09
0.000150536
8.34419e-06
0.00015053
8.33973e-06
2.42492e-09
0.000141975
8.55257e-06
1.02701e-10
0.000141981
8.5573e-06
-9.03044e-11
0.000141983
8.55517e-06
-2.41865e-09
0.000141982
8.5573e-06
0.000141975
8.55258e-06
2.50612e-09
0.000133247
8.72567e-06
1.20444e-10
0.000133253
8.73063e-06
-1.06858e-10
0.000133255
8.7285e-06
-2.49943e-09
0.000133253
8.73064e-06
0.000133247
8.72568e-06
2.57363e-09
0.000124385
8.85949e-06
1.37291e-10
0.000124391
8.86465e-06
-1.23259e-10
0.000124393
8.86252e-06
-2.56676e-09
0.000124391
8.86466e-06
0.000124385
8.8595e-06
2.62742e-09
0.000115428
8.95491e-06
1.52955e-10
0.000115433
8.96023e-06
-1.39167e-10
0.000115435
8.9581e-06
-2.6206e-09
0.000115433
8.96023e-06
0.000115428
8.95492e-06
2.66833e-09
0.00010641
9.01477e-06
1.67037e-10
0.000106416
9.02021e-06
-1.54301e-10
0.000106417
9.0181e-06
-2.66148e-09
0.000106416
9.02022e-06
0.00010641
9.01479e-06
2.69799e-09
9.73648e-05
9.04286e-06
1.7964e-10
9.73698e-05
9.04839e-06
-1.68035e-10
9.73714e-05
9.04631e-06
-2.6906e-09
9.73698e-05
9.0484e-06
9.73647e-05
9.04287e-06
2.71726e-09
8.83186e-05
9.04344e-06
1.9091e-10
8.83233e-05
9.04906e-06
-1.80303e-10
8.83248e-05
9.047e-06
-2.70817e-09
8.83232e-05
9.04906e-06
8.83186e-05
9.04344e-06
2.72153e-09
7.92933e-05
9.02259e-06
2.00903e-10
7.92974e-05
9.02837e-06
-1.92077e-10
7.92989e-05
9.02635e-06
-2.70875e-09
7.92974e-05
9.02836e-06
7.92933e-05
9.02257e-06
2.70098e-09
8.98818e-06
7.03025e-05
2.09334e-10
8.99403e-06
7.03058e-05
-2.03608e-10
8.99204e-06
7.03073e-05
-2.68216e-09
8.994e-06
7.03059e-05
8.98813e-06
7.03025e-05
3.56375e-10
0.000641689
2.82931e-07
-8.06399e-12
0.000641688
2.82669e-07
1.14906e-11
0.000641687
2.82652e-07
-3.55634e-10
0.000641688
2.82815e-07
0.000641688
2.83177e-07
-5.56292e-10
0.000641446
3.8032e-07
-1.64736e-11
0.000641444
3.79859e-07
2.22498e-11
0.000641444
3.79862e-07
5.57719e-10
0.000641444
3.79988e-07
0.000641446
3.80534e-07
-4.32222e-10
0.000641052
6.0171e-07
6.43604e-12
0.00064105
6.01513e-07
1.10187e-12
0.00064105
6.01687e-07
4.34228e-10
0.00064105
6.01587e-07
0.000641052
6.01833e-07
-3.64807e-10
0.000640434
9.44915e-07
-1.11622e-11
0.000640431
9.44848e-07
1.917e-11
0.000640431
9.45096e-07
3.67363e-10
0.000640431
9.44847e-07
0.000640434
9.44922e-07
-4.35055e-10
0.00063953
1.37809e-06
-2.58632e-11
0.000639527
1.37774e-06
3.33672e-11
0.000639527
1.37797e-06
4.38004e-10
0.000639527
1.37771e-06
0.00063953
1.37804e-06
-5.09425e-10
0.000638299
1.87013e-06
-2.83254e-11
0.000638296
1.86954e-06
3.48806e-11
0.000638295
1.86978e-06
5.12795e-10
0.000638296
1.86951e-06
0.000638299
1.8701e-06
-5.83715e-10
0.00063671
2.40581e-06
-2.69867e-11
0.000636706
2.40505e-06
3.29133e-11
0.000636706
2.40535e-06
5.87562e-10
0.000636706
2.40505e-06
0.00063671
2.40581e-06
-6.67187e-10
0.000634735
2.98141e-06
-2.46016e-11
0.000634731
2.9805e-06
3.00151e-11
0.00063473
2.98084e-06
6.71418e-10
0.000634731
2.9805e-06
0.000634734
2.98142e-06
-7.57833e-10
0.000632342
3.60157e-06
-2.10167e-11
0.000632338
3.60049e-06
2.5913e-11
0.000632337
3.60088e-06
7.62199e-10
0.000632338
3.6005e-06
0.000632342
3.60157e-06
-8.52837e-10
0.000629498
4.27201e-06
-1.5984e-11
0.000629493
4.27077e-06
2.06324e-11
0.000629493
4.2712e-06
8.57101e-10
0.000629493
4.27077e-06
0.000629498
4.272e-06
-9.51244e-10
0.000626162
5.00047e-06
-9.24558e-12
0.000626157
4.99906e-06
1.40929e-11
0.000626157
4.99953e-06
9.5535e-10
0.000626157
4.99905e-06
0.000626162
5.00046e-06
-1.05229e-09
0.000622289
5.7945e-06
-6.48293e-13
0.000622284
5.7929e-06
5.96374e-12
0.000622284
5.79342e-06
1.05631e-09
0.000622284
5.79289e-06
0.000622289
5.79448e-06
-1.1541e-09
0.000617833
6.65552e-06
9.93113e-12
0.000617828
6.65374e-06
-3.90956e-12
0.000617828
6.65429e-06
1.15813e-09
0.000617828
6.65373e-06
0.000617833
6.6555e-06
-1.25674e-09
0.00061274
7.59372e-06
2.26656e-11
0.000612735
7.59175e-06
-1.56232e-11
0.000612734
7.59234e-06
1.26097e-09
0.000612735
7.59175e-06
0.00061274
7.59372e-06
-1.35724e-09
0.000606959
8.60215e-06
3.7484e-11
0.000606954
8.6e-06
-2.94237e-11
0.000606954
8.60062e-06
1.36182e-09
0.000606954
8.6e-06
0.000606959
8.60216e-06
-1.45564e-09
0.000600437
9.68675e-06
5.42489e-11
0.000600432
9.68442e-06
-4.55012e-11
0.000600432
9.68507e-06
1.46056e-09
0.000600432
9.68441e-06
0.000600437
9.68674e-06
-1.55033e-09
0.00059312
1.08444e-05
7.27986e-11
0.000593115
1.08419e-05
-6.38116e-11
0.000593115
1.08426e-05
1.55548e-09
0.000593115
1.08419e-05
0.00059312
1.08444e-05
-1.63958e-09
0.000584959
1.20686e-05
9.30283e-11
0.000584954
1.2066e-05
-8.41833e-11
0.000584955
1.20666e-05
1.64481e-09
0.000584954
1.20659e-05
0.000584959
1.20686e-05
-1.72285e-09
0.000575904
1.33588e-05
1.14935e-10
0.0005759
1.33561e-05
-1.06355e-10
0.0005759
1.33568e-05
1.728e-09
0.0005759
1.33561e-05
0.000575904
1.33588e-05
-1.79755e-09
0.000565915
1.46991e-05
1.3825e-10
0.000565911
1.46963e-05
-1.30252e-10
0.000565912
1.4697e-05
1.80264e-09
0.000565911
1.46963e-05
0.000565915
1.46991e-05
-1.86364e-09
0.000554954
1.60858e-05
1.63402e-10
0.000554951
1.6083e-05
-1.54986e-10
0.000554952
1.60838e-05
1.86832e-09
0.000554951
1.6083e-05
0.000554954
1.60858e-05
-1.91913e-09
0.000542992
1.75043e-05
1.89278e-10
0.00054299
1.75015e-05
-1.81659e-10
0.00054299
1.75023e-05
1.924e-09
0.00054299
1.75015e-05
0.000542992
1.75043e-05
-1.96359e-09
0.00053001
1.89394e-05
2.17257e-10
0.000530008
1.89368e-05
-2.08305e-10
0.000530009
1.89375e-05
1.96802e-09
0.000530008
1.89368e-05
0.000530009
1.89394e-05
-1.99558e-09
0.000515997
2.03765e-05
2.44926e-10
0.000515996
2.0374e-05
-2.3663e-10
0.000515997
2.03748e-05
2.00059e-09
0.000515996
2.0374e-05
0.000515997
2.03765e-05
-2.01577e-09
0.000500955
2.1799e-05
2.7437e-10
0.000500955
2.17968e-05
-2.64018e-10
0.000500956
2.17976e-05
2.02036e-09
0.000500955
2.17968e-05
0.000500955
2.1799e-05
-2.02329e-09
0.000484898
2.31887e-05
3.02784e-10
0.000484898
2.31868e-05
-2.92309e-10
0.0004849
2.31876e-05
2.02793e-09
0.000484898
2.31868e-05
0.000484898
2.31887e-05
-2.0184e-09
0.00046785
2.45296e-05
3.29597e-10
0.000467851
2.45279e-05
-3.21017e-10
0.000467853
2.45288e-05
2.02381e-09
0.000467851
2.45279e-05
0.00046785
2.45296e-05
-2.00252e-09
0.000449848
2.58044e-05
3.57379e-10
0.00044985
2.58031e-05
-3.47207e-10
0.000449852
2.5804e-05
2.00747e-09
0.00044985
2.58031e-05
0.000449848
2.58044e-05
-1.97476e-09
0.000430943
2.69953e-05
3.82698e-10
0.000430946
2.69945e-05
-3.73324e-10
0.000430948
2.69954e-05
1.98077e-09
0.000430946
2.69945e-05
0.000430943
2.69954e-05
-1.93771e-09
0.000411193
2.80916e-05
4.08421e-10
0.000411196
2.80912e-05
-3.966e-10
0.000411198
2.80921e-05
1.94336e-09
0.000411196
2.80912e-05
0.000411193
2.80916e-05
-1.89075e-09
0.000390668
2.90794e-05
4.30956e-10
0.000390672
2.90794e-05
-4.1979e-10
0.000390674
2.90804e-05
1.89756e-09
0.000390672
2.90794e-05
0.000390668
2.90794e-05
-1.83672e-09
0.000369445
2.99498e-05
4.53235e-10
0.00036945
2.99502e-05
-4.39967e-10
0.000369452
2.99512e-05
1.84288e-09
0.00036945
2.99502e-05
0.000369445
2.99499e-05
-1.77523e-09
0.000347609
3.06981e-05
4.71587e-10
0.000347613
3.06989e-05
-4.60119e-10
0.000347616
3.06999e-05
1.78217e-09
0.000347613
3.06989e-05
0.000347609
3.06982e-05
-1.70895e-09
0.000325245
3.132e-05
4.89261e-10
0.00032525
3.13211e-05
-4.77036e-10
0.000325253
3.13221e-05
1.71452e-09
0.00032525
3.13212e-05
0.000325245
3.13201e-05
-1.63654e-09
0.000302444
3.18174e-05
5.02761e-10
0.00030245
3.18187e-05
-4.93845e-10
0.000302452
3.18197e-05
1.64239e-09
0.00030245
3.18187e-05
0.000302444
3.18174e-05
-1.55987e-09
0.000279294
3.21944e-05
5.15495e-10
0.0002793
3.21959e-05
-5.06863e-10
0.000279303
3.21969e-05
1.56451e-09
0.0002793
3.21959e-05
0.000279294
3.21944e-05
-1.47821e-09
0.000255883
3.24559e-05
5.26805e-10
0.00025589
3.24574e-05
-5.15067e-10
0.000255892
3.24584e-05
1.47986e-09
0.00025589
3.24574e-05
0.000255883
3.24559e-05
-1.37918e-09
0.000232294
3.2613e-05
5.31866e-10
0.000232302
3.26142e-05
-5.20318e-10
0.000232305
3.26151e-05
1.37918e-09
0.000232302
3.26142e-05
0.000232294
3.26129e-05
-1.23947e-09
3.26699e-05
0.000208614
5.29597e-10
3.26707e-05
0.000208624
-5.20513e-10
3.26716e-05
0.000208626
1.24053e-09
3.26707e-05
0.000208624
3.26698e-05
0.000208614
3.90986e-10
0.00085767
4.50113e-07
-1.53012e-11
0.00085767
4.49342e-07
1.70153e-11
0.000857669
4.49223e-07
-3.90728e-10
0.00085767
4.49479e-07
0.000857669
4.50343e-07
-5.03487e-10
0.00085742
6.30953e-07
-1.72807e-11
0.000857419
6.30697e-07
2.19182e-11
0.000857418
6.30748e-07
5.04506e-10
0.000857418
6.30817e-07
0.000857419
6.3115e-07
-3.12928e-10
0.000857004
1.01751e-06
1.10416e-11
0.000857002
1.01736e-06
-4.30583e-12
0.000857002
1.01756e-06
3.15044e-10
0.000857002
1.01742e-06
0.000857004
1.01762e-06
-1.73671e-10
0.000856343
1.60662e-06
-9.0645e-12
0.000856341
1.60642e-06
1.63849e-11
0.000856341
1.60669e-06
1.76545e-10
0.000856341
1.6064e-06
0.000856342
1.6066e-06
-1.83654e-10
0.000855363
2.3577e-06
-2.71168e-11
0.000855361
2.35723e-06
2.98715e-11
0.000855361
2.35751e-06
1.86303e-10
0.000855361
2.35717e-06
0.000855363
2.35762e-06
-1.81626e-10
0.000854012
3.22182e-06
-2.7724e-11
0.00085401
3.22111e-06
3.23136e-11
0.000854009
3.22142e-06
1.85156e-10
0.000854009
3.22106e-06
0.000854011
3.22176e-06
-1.67321e-10
0.000852247
4.17088e-06
-2.69069e-11
0.000852245
4.16998e-06
3.06947e-11
0.000852244
4.17035e-06
1.71047e-10
0.000852244
4.16996e-06
0.000852247
4.17086e-06
-1.5582e-10
0.000850032
5.19601e-06
-2.5625e-11
0.00085003
5.19493e-06
2.92195e-11
0.00085003
5.19535e-06
1.59783e-10
0.00085003
5.19493e-06
0.000850032
5.196e-06
-1.44839e-10
0.00084733
6.30385e-06
-2.37655e-11
0.000847328
6.3026e-06
2.71433e-11
0.000847328
6.30304e-06
1.48865e-10
0.000847328
6.30259e-06
0.00084733
6.30384e-06
-1.30574e-10
0.000844098
7.50412e-06
-2.09281e-11
0.000844096
7.50268e-06
2.42869e-11
0.000844096
7.50315e-06
1.34504e-10
0.000844096
7.50267e-06
0.000844098
7.50411e-06
-1.1126e-10
0.000840288
8.81098e-06
-1.69848e-11
0.000840285
8.80935e-06
2.06234e-11
0.000840285
8.80983e-06
1.15141e-10
0.000840285
8.80934e-06
0.000840288
8.81096e-06
-8.54128e-11
0.000835844
1.0239e-05
-1.19976e-11
0.000835841
1.02372e-05
1.58268e-11
0.000835841
1.02377e-05
8.93384e-11
0.000835841
1.02372e-05
0.000835843
1.0239e-05
-5.1268e-11
0.000830707
1.17924e-05
-4.75444e-12
0.000830704
1.17903e-05
9.90084e-12
0.000830704
1.17908e-05
5.54262e-11
0.000830704
1.17903e-05
0.000830706
1.17924e-05
-7.88586e-12
0.000824809
1.34912e-05
5.97992e-12
0.000824807
1.3489e-05
2.36069e-12
0.000824807
1.34895e-05
1.23344e-11
0.000824807
1.3489e-05
0.000824809
1.34912e-05
4.60932e-11
0.000818086
1.53255e-05
1.37466e-11
0.000818084
1.53231e-05
-6.74462e-12
0.000818084
1.53236e-05
-4.12471e-11
0.000818084
1.53231e-05
0.000818086
1.53255e-05
1.10985e-10
0.000810464
1.73085e-05
2.40638e-11
0.000810463
1.73059e-05
-1.75306e-11
0.000810463
1.73064e-05
-1.05908e-10
0.000810462
1.73059e-05
0.000810464
1.73085e-05
1.87526e-10
0.000801871
1.94375e-05
3.63698e-11
0.00080187
1.94348e-05
-3.02318e-11
0.00080187
1.94352e-05
-1.82397e-10
0.00080187
1.94348e-05
0.00080187
1.94375e-05
2.76169e-10
0.000792235
2.1704e-05
5.07443e-11
0.000792235
2.17012e-05
-4.40811e-11
0.000792236
2.17016e-05
-2.7094e-10
0.000792235
2.17012e-05
0.000792235
2.1704e-05
3.76741e-10
0.000781483
2.41104e-05
6.47975e-11
0.000781484
2.41076e-05
-6.22713e-11
0.000781485
2.41079e-05
-3.72478e-10
0.000781483
2.41076e-05
0.000781483
2.41104e-05
4.90992e-10
0.00076955
2.66312e-05
8.74198e-11
0.000769552
2.66285e-05
-7.41472e-11
0.000769553
2.66287e-05
-4.84459e-10
0.000769552
2.66285e-05
0.00076955
2.66312e-05
6.13137e-10
0.000756372
2.92635e-05
9.62391e-11
0.000756374
2.92609e-05
-1.0548e-10
0.000756376
2.92611e-05
-6.1186e-10
0.000756374
2.92609e-05
0.000756372
2.92635e-05
7.51333e-10
0.000741892
3.19836e-05
1.34208e-10
0.000741895
3.19812e-05
-1.07792e-10
0.000741897
3.19813e-05
-7.42203e-10
0.000741895
3.19812e-05
0.000741892
3.19836e-05
8.88708e-10
0.000726063
3.47671e-05
1.33795e-10
0.000726068
3.47651e-05
-1.50747e-10
0.00072607
3.47651e-05
-8.89139e-10
0.000726068
3.47651e-05
0.000726063
3.47671e-05
1.04285e-09
0.000708849
3.75894e-05
1.83537e-10
0.000708855
3.75878e-05
-1.46649e-10
0.000708857
3.75878e-05
-1.03157e-09
0.000708855
3.75878e-05
0.000708849
3.75894e-05
1.18817e-09
0.000690225
4.0422e-05
1.80201e-10
0.000690232
4.04209e-05
-1.96409e-10
0.000690234
4.04208e-05
-1.18953e-09
0.000690232
4.04209e-05
0.000690225
4.0422e-05
1.34018e-09
0.000670181
4.32317e-05
2.00153e-10
0.000670188
4.32312e-05
-2.21714e-10
0.000670191
4.32311e-05
-1.34239e-09
0.000670188
4.32312e-05
0.000670181
4.32317e-05
1.49913e-09
0.000648721
4.59885e-05
2.57814e-10
0.000648729
4.59888e-05
-2.10398e-10
0.000648732
4.59886e-05
-1.48555e-09
0.000648729
4.59888e-05
0.00064872
4.59885e-05
1.63736e-09
0.000625864
4.86589e-05
2.38703e-10
0.000625873
4.86599e-05
-2.72357e-10
0.000625877
4.86598e-05
-1.63974e-09
0.000625873
4.86599e-05
0.000625864
4.86589e-05
1.78548e-09
0.000601651
5.12066e-05
3.04969e-10
0.000601661
5.12085e-05
-2.51437e-10
0.000601664
5.12083e-05
-1.77076e-09
0.000601661
5.12085e-05
0.000601651
5.12066e-05
1.90628e-09
0.000576134
5.36069e-05
2.77054e-10
0.000576144
5.36096e-05
-3.18482e-10
0.000576148
5.36094e-05
-1.90975e-09
0.000576144
5.36096e-05
0.000576134
5.36069e-05
2.03508e-09
0.000549383
5.58281e-05
3.49768e-10
0.000549394
5.58316e-05
-2.87742e-10
0.000549397
5.58315e-05
-2.01921e-09
0.000549394
5.58316e-05
0.000549383
5.58281e-05
2.13075e-09
0.000521485
5.78463e-05
3.10544e-10
0.000521495
5.78506e-05
-3.61067e-10
0.000521499
5.78505e-05
-2.13564e-09
0.000521495
5.78506e-05
0.000521485
5.78463e-05
2.23473e-09
0.000492536
5.96444e-05
3.89254e-10
0.000492546
5.96494e-05
-3.18776e-10
0.00049255
5.96493e-05
-2.21794e-09
0.000492546
5.96495e-05
0.000492536
5.96445e-05
2.30209e-09
0.000462649
6.12053e-05
3.36772e-10
0.000462659
6.12109e-05
-3.98554e-10
0.000462662
6.12108e-05
-2.30831e-09
0.000462659
6.12109e-05
0.000462649
6.12053e-05
2.38061e-09
0.000431941
6.25227e-05
4.11681e-10
0.000431951
6.25288e-05
-3.50664e-10
0.000431954
6.25287e-05
-2.36088e-09
0.000431951
6.25288e-05
0.000431941
6.25227e-05
2.43387e-09
0.000400538
6.35948e-05
4.2653e-10
0.000400547
6.36012e-05
-3.57128e-10
0.00040055
6.36011e-05
-2.41289e-09
0.000400547
6.36012e-05
0.000400538
6.35947e-05
2.45919e-09
0.000368571
6.44204e-05
3.7285e-10
0.00036858
6.44271e-05
-4.28896e-10
0.000368583
6.4427e-05
-2.46645e-09
0.00036858
6.4427e-05
0.000368571
6.44203e-05
2.48107e-09
0.000336172
6.50105e-05
3.84778e-10
0.000336179
6.50173e-05
-4.24261e-10
0.000336181
6.50172e-05
-2.48596e-09
0.000336179
6.50173e-05
0.000336172
6.50104e-05
2.48023e-09
6.53682e-05
0.000303471
4.38452e-10
6.53752e-05
0.000303476
-3.73603e-10
6.5375e-05
0.000303479
-2.46368e-09
6.53751e-05
0.000303476
6.5368e-05
0.000303471
3.75163e-10
0.000952541
6.04452e-07
-1.94729e-11
0.000952541
6.03227e-07
2.00892e-11
0.00095254
6.02964e-07
-3.75203e-10
0.000952541
6.0332e-07
0.00095254
6.04608e-07
-4.77353e-10
0.000952315
8.56951e-07
-2.20872e-11
0.000952314
8.56904e-07
2.57805e-11
0.000952314
8.56973e-07
4.782e-10
0.000952314
8.56974e-07
0.000952315
8.57069e-07
-2.80891e-10
0.00095194
1.39335e-06
5.39003e-12
0.000951938
1.39334e-06
3.57894e-13
0.000951938
1.39354e-06
2.83095e-10
0.000951938
1.39335e-06
0.000951939
1.39338e-06
-1.36083e-10
0.000951336
2.21066e-06
-1.77076e-11
0.000951334
2.2104e-06
2.21183e-11
0.000951334
2.21066e-06
1.39126e-10
0.000951334
2.21036e-06
0.000951335
2.21059e-06
-1.54802e-10
0.000950432
3.26207e-06
-3.3479e-11
0.00095043
3.26156e-06
3.87581e-11
0.00095043
3.26185e-06
1.58165e-10
0.00095043
3.26149e-06
0.000950431
3.26196e-06
-1.65049e-10
0.00094917
4.4834e-06
-4.18333e-11
0.000949168
4.48265e-06
4.75935e-11
0.000949168
4.48298e-06
1.6849e-10
0.000949168
4.48259e-06
0.00094917
4.48331e-06
-1.62535e-10
0.000947507
5.83406e-06
-5.49312e-11
0.000947505
5.83309e-06
6.13139e-11
0.000947505
5.83345e-06
1.66221e-10
0.000947505
5.83305e-06
0.000947507
5.83401e-06
-1.6501e-10
0.000945404
7.29936e-06
-6.27061e-11
0.000945402
7.29819e-06
6.82343e-11
0.000945401
7.29858e-06
1.68802e-10
0.000945402
7.29817e-06
0.000945404
7.29934e-06
-1.70386e-10
0.000942821
8.88727e-06
-6.72188e-11
0.000942818
8.88588e-06
7.24736e-11
0.000942818
8.88629e-06
1.74173e-10
0.000942818
8.88587e-06
0.000942821
8.88725e-06
-1.7506e-10
0.000939714
1.06112e-05
-7.02236e-11
0.000939711
1.06096e-05
7.57709e-11
0.000939711
1.061e-05
1.78784e-10
0.000939711
1.06096e-05
0.000939714
1.06112e-05
-1.77937e-10
0.000936033
1.2492e-05
-7.2188e-11
0.00093603
1.24902e-05
7.86374e-11
0.00093603
1.24906e-05
1.81751e-10
0.00093603
1.24902e-05
0.000936033
1.2492e-05
-1.78315e-10
0.00093172
1.45519e-05
-7.33469e-11
0.000931718
1.45498e-05
8.07254e-11
0.000931717
1.45502e-05
1.8238e-10
0.000931717
1.45498e-05
0.00093172
1.45519e-05
-1.75249e-10
0.000926714
1.67988e-05
-7.36669e-11
0.000926711
1.67965e-05
8.18694e-11
0.000926711
1.67969e-05
1.79598e-10
0.000926711
1.67965e-05
0.000926714
1.67988e-05
-1.68556e-10
0.000920941
1.9264e-05
-7.29601e-11
0.000920939
1.92614e-05
8.20221e-11
0.000920939
1.92618e-05
1.73235e-10
0.000920939
1.92614e-05
0.000920941
1.9264e-05
-1.57455e-10
0.000914331
2.19362e-05
-7.11e-11
0.000914328
2.19334e-05
8.07193e-11
0.000914329
2.19337e-05
1.62471e-10
0.000914328
2.19334e-05
0.000914331
2.19362e-05
-1.42259e-10
0.000906802
2.48376e-05
-6.8018e-11
0.0009068
2.48346e-05
7.77194e-11
0.0009068
2.48348e-05
1.47442e-10
0.0009068
2.48346e-05
0.000906802
2.48376e-05
-1.22727e-10
0.000898272
2.79681e-05
-6.34629e-11
0.00089827
2.79648e-05
7.29891e-11
0.00089827
2.7965e-05
1.27868e-10
0.000898269
2.79648e-05
0.000898271
2.7968e-05
-9.88427e-11
0.000888656
3.13193e-05
-5.70202e-11
0.000888655
3.1316e-05
6.64223e-11
0.000888655
3.13161e-05
1.03847e-10
0.000888655
3.13159e-05
0.000888656
3.13193e-05
-7.11036e-11
0.000877868
3.4899e-05
-4.81147e-11
0.000877867
3.48956e-05
5.77817e-11
0.000877867
3.48956e-05
7.5918e-11
0.000877867
3.48956e-05
0.000877868
3.4899e-05
-3.94073e-11
0.000865824
3.86746e-05
-3.60934e-11
0.000865824
3.86712e-05
4.64262e-11
0.000865825
3.86712e-05
4.42445e-11
0.000865824
3.86712e-05
0.000865824
3.86746e-05
-4.18485e-12
0.000852442
4.26462e-05
-1.9276e-11
0.000852442
4.26429e-05
3.2232e-11
0.000852443
4.26428e-05
8.81777e-12
0.000852442
4.26429e-05
0.000852442
4.26462e-05
3.53049e-11
0.000837642
4.67836e-05
-4.72294e-12
0.000837643
4.67805e-05
1.35627e-11
0.000837644
4.67803e-05
-3.01171e-11
0.000837643
4.67805e-05
0.000837642
4.67836e-05
7.76996e-11
0.000821354
5.10547e-05
1.08919e-11
0.000821356
5.1052e-05
-9.31694e-14
0.000821357
5.10518e-05
-7.25851e-11
0.000821356
5.10521e-05
0.000821354
5.10548e-05
1.22999e-10
0.000803516
5.54269e-05
2.29622e-11
0.000803519
5.54247e-05
-1.67332e-11
0.000803521
5.54243e-05
-1.17237e-10
0.000803519
5.54247e-05
0.000803516
5.54269e-05
1.69891e-10
0.000784078
5.98603e-05
3.87049e-11
0.000784082
5.98586e-05
-2.77292e-11
0.000784084
5.98582e-05
-1.63847e-10
0.000784081
5.98586e-05
0.000784078
5.98603e-05
2.17559e-10
0.000763002
6.43071e-05
5.48963e-11
0.000763007
6.43062e-05
-4.37691e-11
0.000763009
6.43058e-05
-2.11491e-10
0.000763007
6.43062e-05
0.000763002
6.43071e-05
2.65313e-10
0.000740268
6.87226e-05
7.30036e-11
0.000740273
6.87226e-05
-6.32406e-11
0.000740276
6.87222e-05
-2.58605e-10
0.000740273
6.87226e-05
0.000740268
6.87226e-05
3.11061e-10
0.000715871
7.30552e-05
9.69033e-11
0.000715877
7.30561e-05
-8.50957e-11
0.00071588
7.30558e-05
-3.051e-10
0.000715877
7.30561e-05
0.000715871
7.30552e-05
3.55117e-10
0.00068983
7.72472e-05
1.30545e-10
0.000689837
7.7249e-05
-1.16998e-10
0.00068984
7.72488e-05
-3.48538e-10
0.000689837
7.7249e-05
0.00068983
7.72472e-05
3.94324e-10
0.000662181
8.12561e-05
1.70901e-10
0.000662188
8.1259e-05
-1.58571e-10
0.000662191
8.12588e-05
-3.88903e-10
0.000662188
8.1259e-05
0.000662181
8.12561e-05
4.2968e-10
0.000632981
8.50273e-05
2.03653e-10
0.000632988
8.50312e-05
-1.93441e-10
0.000632991
8.50312e-05
-4.23701e-10
0.000632988
8.50312e-05
0.000632981
8.50273e-05
4.59049e-10
0.000602311
8.85162e-05
2.36083e-10
0.000602318
8.85211e-05
-2.24868e-10
0.000602321
8.85212e-05
-4.54144e-10
0.000602318
8.85211e-05
0.000602311
8.85162e-05
4.83949e-10
0.000570268
9.16869e-05
2.65655e-10
0.000570275
9.16927e-05
-2.55973e-10
0.000570278
9.1693e-05
-4.78245e-10
0.000570275
9.16927e-05
0.000570268
9.16869e-05
5.02567e-10
0.00053697
9.45025e-05
2.94977e-10
0.000536977
9.45091e-05
-2.8389e-10
0.00053698
9.45095e-05
-4.97749e-10
0.000536977
9.45091e-05
0.00053697
9.45025e-05
5.17289e-10
0.00050255
9.69423e-05
3.20562e-10
0.000502557
9.69495e-05
-3.11114e-10
0.000502559
9.69499e-05
-5.11044e-10
0.000502557
9.69495e-05
0.00050255
9.69423e-05
5.27129e-10
0.000467153
9.89918e-05
3.44913e-10
0.000467159
9.89994e-05
-3.34558e-10
0.000467161
9.9e-05
-5.20369e-10
0.000467159
9.89994e-05
0.000467153
9.89918e-05
5.32385e-10
0.000430934
0.000100639
3.67679e-10
0.00043094
0.000100646
-3.53932e-10
0.000430942
0.000100647
-5.26406e-10
0.00043094
0.000100646
0.000430934
0.000100638
5.37141e-10
0.000394054
0.00010189
3.85469e-10
0.00039406
0.000101897
-3.71501e-10
0.000394062
0.000101898
-5.30836e-10
0.00039406
0.000101897
0.000394054
0.000101889
5.49689e-10
0.000102741
0.000356681
3.96264e-10
0.000102749
0.000356687
-3.8419e-10
0.000102749
0.000356689
-5.42514e-10
0.000102749
0.000356686
0.000102741
0.000356681
3.3994e-10
0.00098715
7.40945e-07
-1.8339e-11
0.00098715
7.39331e-07
1.86218e-11
0.000987149
7.38934e-07
-3.4005e-10
0.00098715
7.39383e-07
0.000987149
7.4103e-07
-4.2672e-10
0.000986955
1.05239e-06
-2.0747e-11
0.000986954
1.05252e-06
2.37509e-11
0.000986954
1.05259e-06
4.27663e-10
0.000986954
1.05255e-06
0.000986954
1.05244e-06
-2.3892e-10
0.000986631
1.71703e-06
5.03825e-12
0.00098663
1.71722e-06
-3.11603e-13
0.00098663
1.71743e-06
2.41211e-10
0.00098663
1.71719e-06
0.000986631
1.717e-06
-9.83827e-11
0.000986108
2.73378e-06
-1.44535e-11
0.000986107
2.73357e-06
1.80169e-11
0.000986107
2.7338e-06
1.01461e-10
0.000986107
2.7335e-06
0.000986108
2.73368e-06
-1.17287e-10
0.00098532
4.05069e-06
-3.78531e-11
0.000985318
4.05022e-06
4.51016e-11
0.000985318
4.05049e-06
1.20779e-10
0.000985318
4.05014e-06
0.000985319
4.05057e-06
-1.2971e-10
0.000984212
5.59081e-06
-4.84538e-11
0.000984211
5.5901e-06
5.40386e-11
0.00098421
5.59041e-06
1.33253e-10
0.00098421
5.59004e-06
0.000984212
5.59071e-06
-1.28949e-10
0.000982744
7.30286e-06
-5.3606e-11
0.000982742
7.30192e-06
5.88189e-11
0.000982741
7.30225e-06
1.32543e-10
0.000982741
7.30187e-06
0.000982743
7.30279e-06
-1.32754e-10
0.000980876
9.1671e-06
-5.73822e-11
0.000980874
9.16591e-06
6.26089e-11
0.000980874
9.16627e-06
1.36395e-10
0.000980874
9.16589e-06
0.000980876
9.16705e-06
-1.39441e-10
0.000978571
1.11927e-05
-5.95929e-11
0.000978568
1.11913e-05
6.49346e-11
0.000978568
1.11916e-05
1.43089e-10
0.000978568
1.11913e-05
0.000978571
1.11927e-05
-1.45459e-10
0.000975785
1.33968e-05
-6.05571e-11
0.000975783
1.33951e-05
6.64415e-11
0.000975783
1.33955e-05
1.49144e-10
0.000975783
1.33951e-05
0.000975785
1.33968e-05
-1.49907e-10
0.000972471
1.58067e-05
-6.04937e-11
0.000972468
1.58047e-05
6.74484e-11
0.000972468
1.58051e-05
1.53799e-10
0.000972468
1.58047e-05
0.000972471
1.58067e-05
-1.52287e-10
0.000968571
1.84523e-05
-5.95226e-11
0.000968568
1.84501e-05
6.74292e-11
0.000968568
1.84505e-05
1.56516e-10
0.000968568
1.84501e-05
0.00096857
1.84523e-05
-1.51798e-10
0.000964023
2.13465e-05
-5.76629e-11
0.00096402
2.1344e-05
6.62645e-11
0.00096402
2.13443e-05
1.56321e-10
0.00096402
2.1344e-05
0.000964023
2.13465e-05
-1.48304e-10
0.000958755
2.45319e-05
-5.48755e-11
0.000958752
2.45291e-05
6.4033e-11
0.000958752
2.45293e-05
1.5309e-10
0.000958752
2.4529e-05
0.000958755
2.45319e-05
-1.40973e-10
0.000952694
2.79977e-05
-5.1321e-11
0.000952691
2.79946e-05
6.05512e-11
0.000952691
2.79948e-05
1.45964e-10
0.000952691
2.79946e-05
0.000952694
2.79977e-05
-1.29888e-10
0.000945755
3.17763e-05
-4.68471e-11
0.000945753
3.1773e-05
5.56762e-11
0.000945753
3.17731e-05
1.34889e-10
0.000945753
3.1773e-05
0.000945755
3.17763e-05
-1.14393e-10
0.000937851
3.58721e-05
-4.12073e-11
0.000937849
3.58685e-05
4.96383e-11
0.000937849
3.58686e-05
1.19235e-10
0.000937849
3.58685e-05
0.000937851
3.58721e-05
-9.38016e-11
0.000928891
4.02794e-05
-3.39656e-11
0.000928889
4.02756e-05
4.23847e-11
0.00092889
4.02756e-05
9.85072e-11
0.000928889
4.02756e-05
0.000928891
4.02794e-05
-6.77094e-11
0.000918777
4.50133e-05
-2.44788e-11
0.000918775