/*--------------------------------*- C++ -*----------------------------------*\
  =========                 |
  \\      /  F ield         | OpenFOAM: The Open Source CFD Toolbox
   \\    /   O peration     | Website:  https://openfoam.org
    \\  /    A nd           | Version:  9
     \\/     M anipulation  |
\*---------------------------------------------------------------------------*/
FoamFile
{
    format      ascii;
    class       volVectorField;
    location    "0.5";
    object      U;
}
// * * * * * * * * * * * * * * * * * * * * * * * * * * * * * * * * * * * * * //

dimensions      [0 1 -1 0 0 0 0];

internalField   nonuniform List<vector> 
4545
(
(2.03197e-05 -0.121688 -0.968596)
(2.02677e-05 -0.121688 5.536e-08)
(2.02494e-05 -0.121687 8.05771e-10)
(2.02865e-05 -0.121688 -5.43623e-08)
(2.03522e-05 -0.121688 0.968596)
(2.09522e-05 -0.121608 -0.961349)
(2.04997e-05 -0.121606 -6.37414e-08)
(2.04361e-05 -0.121606 1.14604e-09)
(2.05136e-05 -0.121606 6.51001e-08)
(2.09764e-05 -0.121608 0.961349)
(3.05536e-05 -0.121528 -0.960683)
(3.00605e-05 -0.121529 -4.51194e-08)
(3.00084e-05 -0.121529 1.34845e-09)
(3.00662e-05 -0.121529 4.66367e-08)
(3.05653e-05 -0.121528 0.960683)
(4.87775e-05 -0.121407 -0.960005)
(4.81195e-05 -0.121407 -2.92444e-08)
(4.80343e-05 -0.121407 1.37631e-09)
(4.81176e-05 -0.121407 3.07846e-08)
(4.87781e-05 -0.121407 0.960005)
(7.1657e-05 -0.12122 -0.959323)
(7.06608e-05 -0.12122 -2.58597e-08)
(7.05069e-05 -0.12122 1.27513e-09)
(7.06571e-05 -0.12122 2.7377e-08)
(7.1655e-05 -0.12122 0.959323)
(9.72688e-05 -0.120957 -0.958626)
(9.59099e-05 -0.120957 -2.2257e-08)
(9.56948e-05 -0.120957 1.18217e-09)
(9.59088e-05 -0.120957 2.38207e-08)
(9.72707e-05 -0.120957 0.958626)
(0.000125191 -0.120613 -0.95792)
(0.000123454 -0.120614 -1.78641e-08)
(0.00012318 -0.120613 1.11464e-09)
(0.000123455 -0.120614 1.95403e-08)
(0.000125196 -0.120613 0.95792)
(0.000155602 -0.120183 -0.957205)
(0.000153448 -0.120183 -1.34051e-08)
(0.000153109 -0.120183 1.03562e-09)
(0.00015345 -0.120183 1.51659e-08)
(0.000155607 -0.120183 0.957205)
(0.000188949 -0.119659 -0.956483)
(0.000186332 -0.119659 -8.49207e-09)
(0.000185922 -0.119659 9.37546e-10)
(0.000186333 -0.119659 1.02594e-08)
(0.00018895 -0.119659 0.956483)
(0.000225748 -0.119036 -0.955747)
(0.000222619 -0.119036 -2.53772e-09)
(0.00022213 -0.119036 8.75822e-10)
(0.000222619 -0.119036 4.28159e-09)
(0.000225747 -0.119035 0.955747)
(0.000266464 -0.118304 -0.955)
(0.000262769 -0.118304 4.98577e-09)
(0.000262191 -0.118304 8.84589e-10)
(0.000262769 -0.118304 -3.24846e-09)
(0.000266462 -0.118304 0.954999)
(0.000311479 -0.117456 -0.954245)
(0.000307157 -0.117456 1.45221e-08)
(0.000306478 -0.117456 9.43542e-10)
(0.000307155 -0.117456 -1.27498e-08)
(0.000311475 -0.117456 0.954245)
(0.000361064 -0.11648 -0.953473)
(0.00035605 -0.116481 2.64505e-08)
(0.000355261 -0.116481 1.0778e-09)
(0.00035605 -0.116481 -2.45609e-08)
(0.000361061 -0.11648 0.953473)
(0.000415388 -0.115368 -0.952701)
(0.000409617 -0.115368 4.11247e-08)
(0.000408705 -0.115368 1.29351e-09)
(0.000409618 -0.115368 -3.90073e-08)
(0.000415388 -0.115368 0.952701)
(0.000474489 -0.114107 -0.951907)
(0.000467891 -0.114108 5.88573e-08)
(0.000466844 -0.114108 1.52801e-09)
(0.000467892 -0.114108 -5.64631e-08)
(0.00047449 -0.114107 0.951907)
(0.000538248 -0.112689 -0.951104)
(0.000530754 -0.11269 7.98114e-08)
(0.000529561 -0.11269 1.71617e-09)
(0.000530753 -0.11269 -7.71729e-08)
(0.000538246 -0.112689 0.951104)
(0.000606422 -0.111104 -0.950291)
(0.000597966 -0.111105 1.04165e-07)
(0.000596614 -0.111105 1.84054e-09)
(0.000597964 -0.111105 -1.0134e-07)
(0.00060642 -0.111104 0.950291)
(0.000678589 -0.109341 -0.94946)
(0.000669108 -0.109342 1.32015e-07)
(0.000667587 -0.109343 1.90676e-09)
(0.000669108 -0.109342 -1.29057e-07)
(0.000678589 -0.109341 0.94946)
(0.000754149 -0.107394 -0.948623)
(0.000743586 -0.107396 1.63354e-07)
(0.000741887 -0.107396 1.92448e-09)
(0.000743587 -0.107396 -1.60324e-07)
(0.000754151 -0.107394 0.948623)
(0.000832315 -0.105256 -0.947763)
(0.000820622 -0.105258 1.98118e-07)
(0.000818735 -0.105258 1.90831e-09)
(0.000820624 -0.105258 -1.95074e-07)
(0.000832319 -0.105256 0.947763)
(0.000912133 -0.102923 -0.946892)
(0.00089927 -0.102925 2.36139e-07)
(0.000897188 -0.102925 1.90777e-09)
(0.000899273 -0.102925 -2.33092e-07)
(0.000912139 -0.102923 0.946892)
(0.00099251 -0.100391 -0.946006)
(0.000978448 -0.100393 2.77162e-07)
(0.000976165 -0.100394 1.89256e-09)
(0.000978451 -0.100393 -2.74149e-07)
(0.000992515 -0.100391 0.946006)
(0.00107221 -0.0976616 -0.9451)
(0.00105693 -0.0976636 3.2086e-07)
(0.00105444 -0.0976642 1.92931e-09)
(0.00105693 -0.0976636 -3.17837e-07)
(0.00107221 -0.0976616 0.9451)
(0.0011499 -0.0947361 -0.944176)
(0.00113341 -0.0947382 3.66722e-07)
(0.00113071 -0.0947389 1.93486e-09)
(0.0011334 -0.0947382 -3.63721e-07)
(0.0011499 -0.0947361 0.944176)
(0.00122421 -0.0916198 -0.943231)
(0.00120652 -0.0916221 4.1424e-07)
(0.00120362 -0.0916228 2.00387e-09)
(0.00120652 -0.0916221 -4.11186e-07)
(0.00122421 -0.0916198 0.943231)
(0.00129381 -0.0883205 -0.942263)
(0.00127494 -0.0883229 4.6272e-07)
(0.00127185 -0.0883237 2.04349e-09)
(0.00127494 -0.0883229 -4.5962e-07)
(0.00129381 -0.0883205 0.942263)
(0.00135742 -0.0848485 -0.941272)
(0.00133743 -0.0848509 5.11519e-07)
(0.00133415 -0.0848517 2.08002e-09)
(0.00133743 -0.0848509 -5.08336e-07)
(0.00135742 -0.0848485 0.941272)
(0.00141392 -0.0812164 -0.940254)
(0.00139286 -0.0812188 5.60057e-07)
(0.00138939 -0.0812197 2.2849e-09)
(0.00139286 -0.0812188 -5.56575e-07)
(0.00141392 -0.0812164 0.940254)
(0.00146237 -0.0774391 -0.939206)
(0.00144031 -0.0774415 6.07683e-07)
(0.00143667 -0.0774424 2.56832e-09)
(0.00144031 -0.0774415 -6.03765e-07)
(0.00146237 -0.0774391 0.939206)
(0.0015021 -0.0735332 -0.938128)
(0.00147912 -0.0735356 6.53904e-07)
(0.00147533 -0.0735365 3.00801e-09)
(0.00147912 -0.0735356 -6.4936e-07)
(0.00150211 -0.0735332 0.938128)
(0.00153275 -0.0695166 -0.937016)
(0.00150893 -0.0695189 6.98159e-07)
(0.001505 -0.0695199 3.44323e-09)
(0.00150893 -0.0695189 -6.92984e-07)
(0.00153275 -0.0695166 0.937016)
(0.00155428 -0.065408 -0.935867)
(0.00152973 -0.0654103 7.40034e-07)
(0.00152567 -0.0654112 3.849e-09)
(0.00152973 -0.0654103 -7.34301e-07)
(0.00155429 -0.065408 0.935867)
(0.00156706 -0.0612263 -0.934679)
(0.00154185 -0.0612285 7.79092e-07)
(0.00153769 -0.0612294 4.05489e-09)
(0.00154186 -0.0612285 -7.73064e-07)
(0.00156706 -0.0612263 0.934679)
(0.00157178 -0.0569902 -0.933447)
(0.00154604 -0.0569923 8.15071e-07)
(0.00154178 -0.0569932 4.06436e-09)
(0.00154604 -0.0569923 -8.09008e-07)
(0.00157179 -0.0569902 0.933447)
(0.00156959 -0.0527173 -0.932171)
(0.00154341 -0.0527193 8.47844e-07)
(0.00153907 -0.0527201 3.82918e-09)
(0.00154341 -0.0527193 -8.41969e-07)
(0.0015696 -0.0527173 0.932171)
(0.00156205 -0.0484237 -0.930847)
(0.00153553 -0.0484256 8.77701e-07)
(0.00153114 -0.0484264 3.55864e-09)
(0.00153554 -0.0484256 -8.7189e-07)
(0.00156206 -0.0484237 0.930847)
(0.00155121 -0.0441238 -0.92947)
(0.00152449 -0.0441255 9.04798e-07)
(0.00152007 -0.0441263 3.31803e-09)
(0.00152449 -0.0441255 -8.98653e-07)
(0.00155122 -0.0441238 0.92947)
(0.00153943 -0.0398295 -0.92804)
(0.0015127 -0.039831 9.2743e-07)
(0.00150827 -0.0398318 2.81623e-09)
(0.0015127 -0.039831 -9.20561e-07)
(0.00153942 -0.0398295 0.92804)
(0.00152896 -0.0355485 -0.925265)
(0.00150251 -0.03555 9.42096e-07)
(0.0014981 -0.0355507 1.86373e-09)
(0.0015025 -0.03555 -9.34141e-07)
(0.00152894 -0.0355485 0.925265)
(7.77284e-05 -0.304881 -0.978222)
(7.77971e-05 -0.30488 5.3083e-08)
(7.78008e-05 -0.30488 5.25475e-10)
(7.78514e-05 -0.30488 -5.24445e-08)
(7.78211e-05 -0.304881 0.978222)
(9.99443e-05 -0.304761 -0.968094)
(9.96397e-05 -0.304758 -8.90624e-08)
(9.96145e-05 -0.304758 9.03425e-10)
(9.96872e-05 -0.304758 9.01877e-08)
(0.000100024 -0.304761 0.968094)
(0.000157202 -0.304613 -0.967423)
(0.000157052 -0.304613 -6.75132e-08)
(0.000157091 -0.304613 1.20252e-09)
(0.000157079 -0.304613 6.90337e-08)
(0.000157249 -0.304613 0.967423)
(0.000250835 -0.304383 -0.966738)
(0.00025077 -0.304383 -6.08358e-08)
(0.000250825 -0.304383 1.30332e-09)
(0.000250771 -0.304383 6.25526e-08)
(0.000250841 -0.304383 0.966738)
(0.000371306 -0.304028 -0.96605)
(0.000371108 -0.304027 -7.60662e-08)
(0.000371128 -0.304027 1.24542e-09)
(0.000371097 -0.304027 7.7798e-08)
(0.000371293 -0.304028 0.96605)
(0.000510988 -0.303525 -0.965348)
(0.000510665 -0.303525 -9.05315e-08)
(0.00051067 -0.303524 1.10987e-09)
(0.000510657 -0.303524 9.22086e-08)
(0.000510981 -0.303525 0.965348)
(0.000666758 -0.302859 -0.964636)
(0.000666344 -0.302859 -1.04864e-07)
(0.00066635 -0.302858 1.02351e-09)
(0.000666344 -0.302859 1.06548e-07)
(0.000666763 -0.302859 0.964636)
(0.000838846 -0.302017 -0.963915)
(0.000838337 -0.302016 -1.2116e-07)
(0.000838344 -0.302016 9.53615e-10)
(0.00083834 -0.302016 1.22855e-07)
(0.000838854 -0.302017 0.963915)
(0.00102942 -0.300984 -0.963186)
(0.00102881 -0.300983 -1.3911e-07)
(0.00102881 -0.300983 8.79627e-10)
(0.00102881 -0.300983 1.40769e-07)
(0.00102943 -0.300984 0.963186)
(0.00124149 -0.299746 -0.962445)
(0.00124076 -0.299745 -1.58285e-07)
(0.00124076 -0.299744 8.51853e-10)
(0.00124076 -0.299745 1.59914e-07)
(0.00124149 -0.299745 0.962445)
(0.00147816 -0.298284 -0.961691)
(0.00147729 -0.298283 -1.78489e-07)
(0.00147729 -0.298283 9.06137e-10)
(0.00147729 -0.298283 1.80158e-07)
(0.00147815 -0.298284 0.961691)
(0.00174238 -0.296578 -0.960931)
(0.00174137 -0.296577 -1.99547e-07)
(0.00174137 -0.296577 1.01338e-09)
(0.00174136 -0.296577 2.01321e-07)
(0.00174237 -0.296578 0.960931)
(0.00203677 -0.294607 -0.960153)
(0.0020356 -0.294606 -2.2122e-07)
(0.00203559 -0.294606 1.17127e-09)
(0.00203559 -0.294606 2.23171e-07)
(0.00203676 -0.294607 0.960153)
(0.00236359 -0.292347 -0.959375)
(0.00236224 -0.292346 -2.43273e-07)
(0.00236222 -0.292345 1.39671e-09)
(0.00236224 -0.292346 2.45503e-07)
(0.00236358 -0.292347 0.959375)
(0.00272462 -0.289772 -0.958576)
(0.00272308 -0.289771 -2.65411e-07)
(0.00272305 -0.289771 1.63094e-09)
(0.00272308 -0.289771 2.67964e-07)
(0.00272462 -0.289772 0.958576)
(0.003121 -0.286858 -0.957767)
(0.00311926 -0.286857 -2.87444e-07)
(0.00311922 -0.286857 1.80541e-09)
(0.00311926 -0.286857 2.90261e-07)
(0.003121 -0.286858 0.957767)
(0.00355338 -0.283579 -0.956948)
(0.00355142 -0.283578 -3.09088e-07)
(0.00355136 -0.283578 1.89179e-09)
(0.00355141 -0.283578 3.12057e-07)
(0.00355337 -0.283579 0.956948)
(0.00402157 -0.279911 -0.956112)
(0.0040194 -0.27991 -3.30015e-07)
(0.00401932 -0.27991 1.89938e-09)
(0.00401939 -0.27991 3.33032e-07)
(0.00402157 -0.279911 0.956112)
(0.00452464 -0.27583 -0.955269)
(0.00452224 -0.275829 -3.4989e-07)
(0.00452214 -0.27583 1.87911e-09)
(0.00452223 -0.275829 3.52889e-07)
(0.00452464 -0.27583 0.955269)
(0.00506067 -0.271315 -0.954405)
(0.00505804 -0.271314 -3.68325e-07)
(0.00505793 -0.271314 1.78681e-09)
(0.00505804 -0.271314 3.71241e-07)
(0.00506067 -0.271315 0.954405)
(0.00562678 -0.266346 -0.953528)
(0.00562393 -0.266345 -3.84916e-07)
(0.00562381 -0.266345 1.91775e-09)
(0.00562394 -0.266345 3.87894e-07)
(0.00562679 -0.266346 0.953528)
(0.00621926 -0.260908 -0.952637)
(0.0062162 -0.260907 -3.99409e-07)
(0.00621606 -0.260907 1.77091e-09)
(0.0062162 -0.260907 4.02304e-07)
(0.00621927 -0.260908 0.952637)
(0.00683337 -0.254988 -0.951726)
(0.0068301 -0.254988 -4.1125e-07)
(0.00682994 -0.254988 2.12235e-09)
(0.0068301 -0.254988 4.14416e-07)
(0.00683338 -0.254988 0.951726)
(0.0074635 -0.248581 -0.950796)
(0.00746004 -0.248581 -4.2048e-07)
(0.00745987 -0.248581 2.00616e-09)
(0.00746003 -0.248581 4.2369e-07)
(0.0074635 -0.248581 0.950796)
(0.00810334 -0.241683 -0.949846)
(0.0080997 -0.241683 -4.26576e-07)
(0.00809953 -0.241683 2.55326e-09)
(0.00809969 -0.241683 4.30254e-07)
(0.00810333 -0.241683 0.949846)
(0.00874601 -0.234298 -0.948872)
(0.00874222 -0.234298 -4.29852e-07)
(0.00874205 -0.234299 2.63533e-09)
(0.00874222 -0.234298 4.33648e-07)
(0.008746 -0.234298 0.948872)
(0.00938435 -0.226435 -0.947875)
(0.00938043 -0.226435 -4.30319e-07)
(0.00938027 -0.226436 2.20155e-09)
(0.00938043 -0.226435 4.33902e-07)
(0.00938435 -0.226435 0.947875)
(0.0100111 -0.218109 -0.946851)
(0.0100071 -0.218109 -4.27514e-07)
(0.0100069 -0.21811 2.66251e-09)
(0.0100071 -0.218109 4.31465e-07)
(0.0100111 -0.218109 0.946851)
(0.0106192 -0.20934 -0.945796)
(0.0106151 -0.209341 -4.21958e-07)
(0.010615 -0.209341 2.50276e-09)
(0.0106151 -0.209341 4.26055e-07)
(0.0106192 -0.20934 0.945796)
(0.0112021 -0.200154 -0.94471)
(0.0111979 -0.200155 -4.13356e-07)
(0.0111978 -0.200156 3.21929e-09)
(0.0111979 -0.200155 4.18106e-07)
(0.0112021 -0.200154 0.94471)
(0.011754 -0.190583 -0.94359)
(0.0117498 -0.190584 -4.02399e-07)
(0.0117497 -0.190585 3.10154e-09)
(0.0117498 -0.190584 4.07383e-07)
(0.011754 -0.190583 0.94359)
(0.0122702 -0.18066 -0.942431)
(0.0122659 -0.180662 -3.88927e-07)
(0.0122659 -0.180663 3.75896e-09)
(0.012266 -0.180662 3.9442e-07)
(0.0122702 -0.18066 0.942431)
(0.0127473 -0.170425 -0.941232)
(0.0127431 -0.170427 -3.73733e-07)
(0.012743 -0.170428 3.3141e-09)
(0.0127431 -0.170427 3.79042e-07)
(0.0127473 -0.170425 0.941232)
(0.0131834 -0.159919 -0.939989)
(0.0131792 -0.15992 -3.56585e-07)
(0.0131792 -0.159921 3.60353e-09)
(0.0131792 -0.15992 3.61822e-07)
(0.0131834 -0.159919 0.939989)
(0.0135781 -0.149183 -0.9387)
(0.0135739 -0.149184 -3.38018e-07)
(0.0135739 -0.149185 2.6809e-09)
(0.0135739 -0.149184 3.42448e-07)
(0.0135781 -0.149183 0.9387)
(0.0139328 -0.138259 -0.937362)
(0.0139286 -0.138261 -3.17496e-07)
(0.0139286 -0.138262 2.64707e-09)
(0.0139286 -0.138261 3.21558e-07)
(0.0139328 -0.138259 0.937362)
(0.0142506 -0.127191 -0.935969)
(0.0142464 -0.127194 -2.94924e-07)
(0.0142464 -0.127195 3.67193e-09)
(0.0142464 -0.127193 2.9911e-07)
(0.0142506 -0.127191 0.935969)
(0.0145357 -0.116018 -0.934523)
(0.0145315 -0.116021 -2.67793e-07)
(0.0145315 -0.116022 3.6844e-09)
(0.0145315 -0.116021 2.71479e-07)
(0.0145357 -0.116018 0.934523)
(0.0147925 -0.10478 -0.931843)
(0.0147883 -0.104784 -2.28693e-07)
(0.0147883 -0.104785 2.95647e-09)
(0.0147882 -0.104784 2.31993e-07)
(0.0147925 -0.10478 0.931843)
(0.000148289 -0.407468 -0.979815)
(0.000148312 -0.407467 5.72474e-08)
(0.000148303 -0.407467 2.62858e-10)
(0.000148376 -0.407467 -5.69452e-08)
(0.000148396 -0.407468 0.979815)
(0.000209092 -0.407348 -0.968124)
(0.000209284 -0.407345 -8.09781e-08)
(0.000209325 -0.407345 7.25327e-10)
(0.000209343 -0.407345 8.1862e-08)
(0.000209188 -0.407348 0.968124)
(0.000341347 -0.407192 -0.967453)
(0.000341835 -0.407192 -4.78607e-08)
(0.000341957 -0.407192 1.07455e-09)
(0.000341869 -0.407192 4.92708e-08)
(0.000341405 -0.407192 0.967453)
(0.000548232 -0.406949 -0.966768)
(0.000549024 -0.406949 -2.95718e-08)
(0.000549203 -0.406949 1.19143e-09)
(0.000549024 -0.406949 3.12282e-08)
(0.000548234 -0.406949 0.966768)
(0.0008176 -0.406567 -0.96608)
(0.000818606 -0.406567 -3.47987e-08)
(0.000818813 -0.406567 1.29387e-09)
(0.000818586 -0.406567 3.65296e-08)
(0.000817572 -0.406567 0.96608)
(0.0011355 -0.406019 -0.965378)
(0.00113675 -0.406019 -3.59302e-08)
(0.001137 -0.406019 9.90896e-10)
(0.00113673 -0.406019 3.75152e-08)
(0.00113548 -0.406019 0.965378)
(0.00149429 -0.405284 -0.964666)
(0.00149583 -0.405284 -3.41118e-08)
(0.00149615 -0.405284 9.25755e-10)
(0.00149583 -0.405284 3.56772e-08)
(0.00149429 -0.405284 0.964666)
(0.00189345 -0.404344 -0.963945)
(0.00189532 -0.404344 -3.2592e-08)
(0.0018957 -0.404344 8.72141e-10)
(0.00189532 -0.404344 3.41581e-08)
(0.00189346 -0.404344 0.963945)
(0.00233734 -0.403182 -0.963217)
(0.00233955 -0.403182 -3.08873e-08)
(0.00234 -0.403182 8.19969e-10)
(0.00233955 -0.403182 3.24262e-08)
(0.00233734 -0.403182 0.963217)
(0.00283275 -0.401779 -0.962475)
(0.00283534 -0.401779 -2.82553e-08)
(0.00283586 -0.401779 8.26785e-10)
(0.00283534 -0.401779 2.97979e-08)
(0.00283274 -0.401779 0.962475)
(0.00338723 -0.400114 -0.961721)
(0.00339024 -0.400114 -2.42908e-08)
(0.00339083 -0.400114 9.31468e-10)
(0.00339024 -0.400114 2.59434e-08)
(0.00338723 -0.400114 0.961721)
(0.00400842 -0.398161 -0.960961)
(0.00401187 -0.398162 -1.86205e-08)
(0.00401253 -0.398162 1.09016e-09)
(0.00401186 -0.398161 2.04546e-08)
(0.00400841 -0.398161 0.960961)
(0.00470341 -0.395895 -0.960183)
(0.00470734 -0.395895 -1.08376e-08)
(0.00470808 -0.395895 1.24548e-09)
(0.00470734 -0.395895 1.28871e-08)
(0.0047034 -0.395895 0.960183)
(0.0054788 -0.393284 -0.959405)
(0.00548324 -0.393284 -5.63463e-10)
(0.00548407 -0.393284 1.45941e-09)
(0.00548324 -0.393284 2.89991e-09)
(0.00547879 -0.393284 0.959405)
(0.00634036 -0.390296 -0.958606)
(0.00634536 -0.390297 1.26083e-08)
(0.00634627 -0.390297 1.65291e-09)
(0.00634536 -0.390297 -9.98068e-09)
(0.00634037 -0.390296 0.958606)
(0.00729264 -0.3869 -0.957796)
(0.00729821 -0.386901 2.88977e-08)
(0.0072992 -0.386901 1.78575e-09)
(0.0072982 -0.386901 -2.60704e-08)
(0.00729263 -0.3869 0.957796)
(0.00833926 -0.38306 -0.956977)
(0.00834542 -0.383061 4.85661e-08)
(0.0083465 -0.383061 1.83106e-09)
(0.00834541 -0.383061 -4.56618e-08)
(0.00833924 -0.38306 0.956977)
(0.00948224 -0.378742 -0.956142)
(0.00948903 -0.378743 7.19132e-08)
(0.0094902 -0.378743 1.76435e-09)
(0.00948902 -0.378743 -6.90326e-08)
(0.00948223 -0.378742 0.956142)
(0.010722 -0.373911 -0.955299)
(0.0107294 -0.373912 9.91602e-08)
(0.0107307 -0.373913 1.96655e-09)
(0.0107294 -0.373912 -9.62657e-08)
(0.010722 -0.373911 0.955299)
(0.012057 -0.368534 -0.954435)
(0.0120651 -0.368536 1.30537e-07)
(0.0120665 -0.368536 1.20551e-09)
(0.0120651 -0.368536 -1.2788e-07)
(0.012057 -0.368534 0.954435)
(0.0134835 -0.362581 -0.953559)
(0.0134922 -0.362583 1.66153e-07)
(0.0134937 -0.362584 2.9383e-09)
(0.0134922 -0.362583 -1.62925e-07)
(0.0134835 -0.362581 0.953559)
(0.0149957 -0.356022 -0.952669)
(0.015005 -0.356024 2.05351e-07)
(0.0150066 -0.356025 5.38507e-10)
(0.015005 -0.356024 -2.02703e-07)
(0.0149957 -0.356022 0.952669)
(0.0165852 -0.348833 -0.95176)
(0.0165953 -0.348836 2.49129e-07)
(0.0165969 -0.348837 3.95503e-09)
(0.0165953 -0.348835 -2.45276e-07)
(0.0165853 -0.348833 0.95176)
(0.0182417 -0.340993 -0.950832)
(0.0182523 -0.340996 2.95061e-07)
(0.018254 -0.340997 5.59456e-10)
(0.0182523 -0.340996 -2.91792e-07)
(0.0182417 -0.340993 0.950832)
(0.0199523 -0.332488 -0.949884)
(0.0199636 -0.332491 3.45285e-07)
(0.0199653 -0.332493 5.51664e-09)
(0.0199635 -0.332491 -3.40101e-07)
(0.0199523 -0.332488 0.949884)
(0.0217024 -0.323309 -0.948913)
(0.0217142 -0.323313 3.9692e-07)
(0.0217161 -0.323314 5.96399e-09)
(0.0217142 -0.323313 -3.91508e-07)
(0.0217024 -0.323309 0.948913)
(0.0234757 -0.313455 -0.947919)
(0.0234881 -0.313459 4.48584e-07)
(0.0234901 -0.31346 1.67992e-10)
(0.0234881 -0.313459 -4.44951e-07)
(0.0234757 -0.313455 0.947919)
(0.0252549 -0.302931 -0.946899)
(0.0252678 -0.302935 5.02866e-07)
(0.0252698 -0.302936 5.54661e-09)
(0.0252678 -0.302935 -4.9794e-07)
(0.0252549 -0.302931 0.946899)
(0.0270219 -0.291751 -0.945848)
(0.0270352 -0.291755 5.55309e-07)
(0.0270374 -0.291756 -3.42437e-10)
(0.0270352 -0.291755 -5.51745e-07)
(0.027022 -0.291751 0.945848)
(0.0287587 -0.279937 -0.944768)
(0.0287724 -0.279941 6.08943e-07)
(0.0287746 -0.279942 6.15495e-09)
(0.0287724 -0.279941 -6.03728e-07)
(0.0287588 -0.279937 0.944768)
(0.030448 -0.267518 -0.943652)
(0.030462 -0.267522 6.59104e-07)
(0.0304643 -0.267523 -6.68491e-10)
(0.030462 -0.267522 -6.5539e-07)
(0.030448 -0.267518 0.943652)
(0.0320737 -0.254531 -0.942499)
(0.0320879 -0.254535 7.0922e-07)
(0.0320902 -0.254537 6.77437e-09)
(0.0320879 -0.254535 -7.03823e-07)
(0.0320737 -0.254531 0.942499)
(0.0336217 -0.24102 -0.941306)
(0.0336361 -0.241024 7.54508e-07)
(0.0336384 -0.241026 -1.29864e-09)
(0.0336361 -0.241024 -7.50981e-07)
(0.0336217 -0.24102 0.941306)
(0.0350804 -0.227036 -0.940068)
(0.0350949 -0.22704 7.98923e-07)
(0.0350973 -0.227041 6.8306e-09)
(0.0350949 -0.22704 -7.93916e-07)
(0.0350804 -0.227036 0.940068)
(0.036441 -0.212632 -0.938784)
(0.0364555 -0.212636 8.37804e-07)
(0.036458 -0.212637 -3.53757e-09)
(0.0364555 -0.212636 -8.35446e-07)
(0.036441 -0.212632 0.938784)
(0.0376981 -0.197867 -0.937451)
(0.0377125 -0.197871 8.74866e-07)
(0.0377149 -0.197872 -3.33344e-09)
(0.0377125 -0.197871 -8.71805e-07)
(0.0376981 -0.197867 0.937451)
(0.0388489 -0.182803 -0.936063)
(0.0388631 -0.182806 9.09643e-07)
(0.0388655 -0.182807 9.59307e-09)
(0.0388631 -0.182806 -9.02307e-07)
(0.0388489 -0.182803 0.936063)
(0.0398932 -0.167501 -0.934621)
(0.039907 -0.167504 9.36966e-07)
(0.0399093 -0.167505 8.87183e-09)
(0.039907 -0.167504 -9.29645e-07)
(0.0398931 -0.167501 0.934621)
(0.0408303 -0.152024 -0.932033)
(0.0408436 -0.152026 9.52505e-07)
(0.0408458 -0.152027 -1.10501e-09)
(0.0408435 -0.152026 -9.48253e-07)
(0.0408302 -0.152024 0.932033)
(0.000214029 -0.452534 -0.980513)
(0.000213751 -0.452533 5.41968e-08)
(0.000213669 -0.452533 9.45056e-11)
(0.000213797 -0.452533 -5.41083e-08)
(0.000214104 -0.452534 0.980513)
(0.000308225 -0.452424 -0.968135)
(0.000308386 -0.452422 -7.76684e-08)
(0.000308409 -0.452421 5.77664e-10)
(0.000308426 -0.452422 7.83779e-08)
(0.00030829 -0.452424 0.968135)
(0.000509635 -0.452283 -0.967463)
(0.000509972 -0.452283 -4.36829e-08)
(0.000510051 -0.452283 9.16975e-10)
(0.000509988 -0.452283 4.49494e-08)
(0.000509664 -0.452283 0.967463)
(0.000823352 -0.452063 -0.966777)
(0.000823768 -0.452063 -2.4898e-08)
(0.000823869 -0.452063 1.01187e-09)
(0.000823754 -0.452063 2.64022e-08)
(0.000823333 -0.452063 0.966777)
(0.00123601 -0.451713 -0.966088)
(0.00123645 -0.451713 -3.23766e-08)
(0.00123656 -0.451713 9.89461e-10)
(0.00123643 -0.451713 3.39209e-08)
(0.00123597 -0.451713 0.966088)
(0.00172858 -0.451205 -0.965385)
(0.00172903 -0.451205 -3.60649e-08)
(0.00172915 -0.451205 9.06397e-10)
(0.00172901 -0.451205 3.75503e-08)
(0.00172855 -0.451205 0.965385)
(0.00228891 -0.450516 -0.964672)
(0.00228938 -0.450516 -3.6876e-08)
(0.00228951 -0.450516 8.3886e-10)
(0.00228937 -0.450516 3.83477e-08)
(0.0022889 -0.450516 0.964672)
(0.00291525 -0.449626 -0.963949)
(0.00291573 -0.449626 -3.85925e-08)
(0.00291586 -0.449626 8.1727e-10)
(0.00291572 -0.449626 4.00738e-08)
(0.00291524 -0.449626 0.963949)
(0.00361371 -0.448519 -0.963219)
(0.00361419 -0.448519 -4.08317e-08)
(0.00361432 -0.448519 8.04913e-10)
(0.00361418 -0.448519 4.23129e-08)
(0.0036137 -0.448519 0.963219)
(0.00439476 -0.447174 -0.962476)
(0.00439523 -0.447174 -4.28816e-08)
(0.00439536 -0.447174 8.55188e-10)
(0.00439523 -0.447174 4.44153e-08)
(0.00439475 -0.447174 0.962476)
(0.00527059 -0.44557 -0.96172)
(0.00527104 -0.445569 -4.45087e-08)
(0.00527115 -0.445569 9.93771e-10)
(0.00527103 -0.445569 4.62113e-08)
(0.00527058 -0.445569 0.96172)
(0.00625392 -0.443679 -0.960958)
(0.00625433 -0.443679 -4.55536e-08)
(0.00625442 -0.443679 1.15216e-09)
(0.00625432 -0.443679 4.74762e-08)
(0.00625391 -0.443679 0.960958)
(0.00735702 -0.441475 -0.960177)
(0.00735737 -0.441475 -4.58027e-08)
(0.00735744 -0.441475 1.30479e-09)
(0.00735737 -0.441475 4.79485e-08)
(0.00735701 -0.441475 0.960177)
(0.00859168 -0.438925 -0.959396)
(0.00859194 -0.438926 -4.5105e-08)
(0.00859198 -0.438926 1.46934e-09)
(0.00859194 -0.438925 4.74967e-08)
(0.00859168 -0.438925 0.959396)
(0.00996874 -0.435995 -0.958595)
(0.00996888 -0.435995 -4.32903e-08)
(0.00996887 -0.435995 1.59301e-09)
(0.00996888 -0.435995 4.58922e-08)
(0.00996874 -0.435995 0.958595)
(0.0114974 -0.432649 -0.957782)
(0.0114974 -0.432649 -4.03354e-08)
(0.0114973 -0.432649 1.63617e-09)
(0.0114974 -0.432649 4.3035e-08)
(0.0114974 -0.432649 0.957782)
(0.0131857 -0.428847 -0.956961)
(0.0131855 -0.428847 -3.61141e-08)
(0.0131853 -0.428847 1.6237e-09)
(0.0131855 -0.428847 3.88136e-08)
(0.0131857 -0.428847 0.956961)
(0.0150395 -0.42455 -0.956122)
(0.0150391 -0.424551 -3.05223e-08)
(0.0150389 -0.424551 1.60396e-09)
(0.0150391 -0.42455 3.31945e-08)
(0.0150395 -0.42455 0.956122)
(0.0170625 -0.419717 -0.955276)
(0.0170618 -0.419718 -2.3523e-08)
(0.0170615 -0.419718 1.63969e-09)
(0.0170618 -0.419718 2.62107e-08)
(0.0170625 -0.419717 0.955276)
(0.0192555 -0.414308 -0.95441)
(0.0192545 -0.414309 -1.49952e-08)
(0.0192541 -0.414309 1.68364e-09)
(0.0192545 -0.414309 1.77532e-08)
(0.0192555 -0.414308 0.95441)
(0.0216157 -0.408282 -0.953532)
(0.0216144 -0.408283 -4.80204e-09)
(0.0216139 -0.408284 2.01376e-09)
(0.0216144 -0.408283 7.86526e-09)
(0.0216158 -0.408282 0.953532)
(0.0241377 -0.401602 -0.95264)
(0.0241359 -0.401603 7.0593e-09)
(0.0241353 -0.401604 2.05452e-09)
(0.0241359 -0.401603 -3.80617e-09)
(0.0241377 -0.401602 0.95264)
(0.0268115 -0.394231 -0.951729)
(0.0268093 -0.394232 2.08936e-08)
(0.0268086 -0.394233 2.56006e-09)
(0.0268093 -0.394232 -1.71282e-08)
(0.0268115 -0.39423 0.951729)
(0.0296235 -0.386137 -0.9508)
(0.0296209 -0.386139 3.62508e-08)
(0.0296201 -0.38614 2.61027e-09)
(0.0296209 -0.386139 -3.22553e-08)
(0.0296235 -0.386137 0.9508)
(0.0325562 -0.377294 -0.949852)
(0.0325532 -0.377296 5.32579e-08)
(0.0325522 -0.377297 3.02162e-09)
(0.0325532 -0.377296 -4.87542e-08)
(0.0325562 -0.377294 0.949852)
(0.0355882 -0.36768 -0.948882)
(0.0355848 -0.367682 7.11602e-08)
(0.0355837 -0.367683 3.11668e-09)
(0.0355848 -0.367682 -6.6526e-08)
(0.0355882 -0.36768 0.948882)
(0.0386947 -0.357282 -0.947889)
(0.0386909 -0.357284 8.96194e-08)
(0.0386898 -0.357285 2.59871e-09)
(0.0386909 -0.357284 -8.53097e-08)
(0.0386947 -0.357282 0.947889)
(0.0418481 -0.346093 -0.946871)
(0.041844 -0.346095 1.08712e-07)
(0.0418427 -0.346096 2.83749e-09)
(0.041844 -0.346095 -1.04324e-07)
(0.0418481 -0.346092 0.946871)
(0.0450184 -0.334115 -0.945824)
(0.0450139 -0.334118 1.27568e-07)
(0.0450126 -0.334119 2.34971e-09)
(0.0450139 -0.334118 -1.23473e-07)
(0.0450184 -0.334115 0.945824)
(0.0481741 -0.321363 -0.944747)
(0.0481693 -0.321366 1.46694e-07)
(0.048168 -0.321367 2.72523e-09)
(0.0481693 -0.321366 -1.42501e-07)
(0.0481741 -0.321363 0.944747)
(0.0512836 -0.307858 -0.943636)
(0.0512785 -0.30786 1.65185e-07)
(0.0512772 -0.307862 2.23228e-09)
(0.0512786 -0.30786 -1.61301e-07)
(0.0512836 -0.307858 0.943636)
(0.0543159 -0.293632 -0.942488)
(0.0543105 -0.293635 1.8312e-07)
(0.0543092 -0.293636 2.62801e-09)
(0.0543106 -0.293635 -1.79111e-07)
(0.0543159 -0.293632 0.942488)
(0.0572416 -0.278729 -0.941301)
(0.0572361 -0.278731 1.99776e-07)
(0.0572347 -0.278733 2.12714e-09)
(0.0572361 -0.278731 -1.9601e-07)
(0.0572416 -0.278729 0.941301)
(0.0600345 -0.263199 -0.94007)
(0.0600287 -0.263201 2.15441e-07)
(0.0600273 -0.263202 2.59468e-09)
(0.0600287 -0.263201 -2.11434e-07)
(0.0600345 -0.263199 0.94007)
(0.0626717 -0.247102 -0.938793)
(0.0626657 -0.247104 2.29526e-07)
(0.0626643 -0.247105 1.96023e-09)
(0.0626657 -0.247104 -2.25699e-07)
(0.0626717 -0.247102 0.938793)
(0.065135 -0.230505 -0.937467)
(0.0651288 -0.230506 2.42577e-07)
(0.0651274 -0.230508 2.22892e-09)
(0.0651288 -0.230506 -2.38288e-07)
(0.065135 -0.230504 0.937467)
(0.0674106 -0.213478 -0.936086)
(0.0674041 -0.21348 2.54536e-07)
(0.0674027 -0.213481 3.47772e-09)
(0.0674041 -0.21348 -2.492e-07)
(0.0674106 -0.213478 0.936086)
(0.069488 -0.196099 -0.934649)
(0.0694814 -0.196101 2.65393e-07)
(0.0694799 -0.196102 3.59927e-09)
(0.0694813 -0.196101 -2.59794e-07)
(0.069488 -0.196099 0.934649)
(0.0713566 -0.178443 -0.932118)
(0.0713498 -0.178445 2.77381e-07)
(0.0713483 -0.178446 2.91598e-09)
(0.0713497 -0.178445 -2.72144e-07)
(0.0713565 -0.178443 0.932118)
(0.00027311 -0.468956 -0.980766)
(0.000272615 -0.468956 4.90008e-08)
(0.000272474 -0.468955 4.33675e-11)
(0.000272641 -0.468956 -4.89744e-08)
(0.000273152 -0.468956 0.980766)
(0.000395274 -0.46886 -0.968138)
(0.00039546 -0.468858 -6.95856e-08)
(0.000395485 -0.468857 4.69821e-10)
(0.000395478 -0.468858 7.02021e-08)
(0.000395303 -0.468859 0.968138)
(0.000656956 -0.468738 -0.967463)
(0.000657287 -0.468738 -3.70826e-08)
(0.000657368 -0.468738 7.54035e-10)
(0.000657283 -0.468738 3.82e-08)
(0.000656953 -0.468738 0.967463)
(0.00106571 -0.468548 -0.966775)
(0.00106602 -0.468548 -1.85186e-08)
(0.00106611 -0.468548 8.37891e-10)
(0.00106599 -0.468548 1.98546e-08)
(0.00106567 -0.468548 0.966775)
(0.00160758 -0.468245 -0.966083)
(0.00160789 -0.468245 -2.55108e-08)
(0.001608 -0.468244 8.09505e-10)
(0.00160785 -0.468244 2.68965e-08)
(0.00160753 -0.468244 0.966083)
(0.0022595 -0.4678 -0.965378)
(0.00225981 -0.4678 -2.91063e-08)
(0.00225994 -0.4678 7.74924e-10)
(0.00225979 -0.4678 3.04775e-08)
(0.00225946 -0.4678 0.965378)
(0.00300549 -0.467193 -0.964663)
(0.00300581 -0.467193 -2.99205e-08)
(0.00300595 -0.467193 7.6034e-10)
(0.00300579 -0.467193 3.12978e-08)
(0.00300546 -0.467193 0.964663)
(0.00384264 -0.466406 -0.963938)
(0.00384296 -0.466406 -3.16174e-08)
(0.00384312 -0.466406 7.77535e-10)
(0.00384295 -0.466406 3.30324e-08)
(0.00384262 -0.466406 0.963938)
(0.0047787 -0.46542 -0.963205)
(0.00477902 -0.46542 -3.38115e-08)
(0.00477918 -0.46542 8.10416e-10)
(0.00477901 -0.46542 3.52733e-08)
(0.00477868 -0.46542 0.963205)
(0.00582765 -0.464218 -0.962458)
(0.00582797 -0.464217 -3.58276e-08)
(0.00582814 -0.464217 8.9979e-10)
(0.00582796 -0.464217 3.73987e-08)
(0.00582764 -0.464217 0.962458)
(0.00700629 -0.462776 -0.961699)
(0.00700659 -0.462776 -3.7481e-08)
(0.00700675 -0.462776 1.06311e-09)
(0.00700658 -0.462776 3.92673e-08)
(0.00700628 -0.462776 0.961699)
(0.00833257 -0.46107 -0.960933)
(0.00833284 -0.46107 -3.86549e-08)
(0.008333 -0.46107 1.21827e-09)
(0.00833283 -0.46107 4.06746e-08)
(0.00833256 -0.46107 0.960933)
(0.00982431 -0.459073 -0.960147)
(0.00982453 -0.459073 -3.9165e-08)
(0.00982468 -0.459073 1.33924e-09)
(0.00982453 -0.459073 4.13787e-08)
(0.0098243 -0.459073 0.960147)
(0.011499 -0.456752 -0.959362)
(0.0114992 -0.456752 -3.88888e-08)
(0.0114993 -0.456752 1.43797e-09)
(0.0114992 -0.456752 4.12703e-08)
(0.011499 -0.456752 0.959362)
(0.0133734 -0.454072 -0.958555)
(0.0133734 -0.454073 -3.76377e-08)
(0.0133736 -0.454072 1.48165e-09)
(0.0133734 -0.454072 4.01233e-08)
(0.0133733 -0.454072 0.958555)
(0.0154622 -0.450997 -0.957737)
(0.0154622 -0.450997 -3.53238e-08)
(0.0154623 -0.450997 1.45987e-09)
(0.0154622 -0.450997 3.78097e-08)
(0.0154622 -0.450997 0.957737)
(0.0177793 -0.447485 -0.95691)
(0.0177792 -0.447485 -3.16932e-08)
(0.0177792 -0.447485 1.43433e-09)
(0.0177792 -0.447485 3.41408e-08)
(0.0177793 -0.447485 0.95691)
(0.0203359 -0.443493 -0.956065)