/*--------------------------------*- C++ -*----------------------------------*\
  =========                 |
  \\      /  F ield         | OpenFOAM: The Open Source CFD Toolbox
   \\    /   O peration     | Website:  https://openfoam.org
    \\  /    A nd           | Version:  9
     \\/     M anipulation  |
\*---------------------------------------------------------------------------*/
FoamFile
{
    format      ascii;
    class       volScalarField;
    location    "0.35";
    object      epsilon;
}
// * * * * * * * * * * * * * * * * * * * * * * * * * * * * * * * * * * * * * //

dimensions      [0 2 -3 0 0 0 0];

internalField   nonuniform List<scalar> 
36360
(
0.0606912
0.0448764
0.0351478
0.0284223
0.0099262
0.00574461
0.00796574
0.00580231
0.00547272
0.00312846
0.00549229
0.00458542
0.00402938
0.00391565
0.00508498
0.00503539
0.00306221
0.00306219
0.00456297
0.00456297
0.0039103
0.0039103
0.00503257
0.00503257
0.00312805
0.00546715
0.00458535
0.00549128
0.00391561
0.004029
0.00503538
0.0050849
0.044862
0.0607034
0.0284195
0.0351503
0.00574336
0.00992704
0.00580215
0.00796583
0.0697467
0.0508569
0.0682894
0.0498236
0.0106948
0.00587509
0.0106192
0.00583997
0.00572577
0.00278281
0.00565701
0.00283072
0.00376819
0.00363126
0.00380511
0.00367204
0.00269718
0.00269716
0.00274862
0.0027486
0.00362516
0.00362516
0.00366604
0.00366604
0.00278217
0.0057173
0.00283014
0.00564936
0.00363121
0.00376763
0.00367199
0.00380459
0.0508347
0.069766
0.0498031
0.0683067
0.00587314
0.0106962
0.00583821
0.0106206
0.0700355
0.0511052
0.0700492
0.0511053
0.0106376
0.00588475
0.0106693
0.00588264
0.00573973
0.00277714
0.00574153
0.00277632
0.00376196
0.00362638
0.00376287
0.00362557
0.00269143
0.0026914
0.0026901
0.00269008
0.00362052
0.00362051
0.00361952
0.00361952
0.00277649
0.00573114
0.00277567
0.00573292
0.00362633
0.0037614
0.00362551
0.00376231
0.0510829
0.0700554
0.0510829
0.0700691
0.00588281
0.0106389
0.00588068
0.0106707
0.0699179
0.0510502
0.0700152
0.0511039
0.0106135
0.00588102
0.0106273
0.00588508
0.00573125
0.00277713
0.00573744
0.00277602
0.00376034
0.00362437
0.00376101
0.00362505
0.00269171
0.00269168
0.00269028
0.00269025
0.00361869
0.00361869
0.00361915
0.00361915
0.00277649
0.00572277
0.00277538
0.00572891
0.00362432
0.00375979
0.00362499
0.00376045
0.051029
0.0699394
0.0510822
0.0700361
0.00587916
0.010615
0.00588319
0.0106287
0.0697457
0.0509555
0.0698588
0.0510195
0.0105901
0.00587096
0.0106044
0.00587739
0.00572093
0.00277665
0.0057272
0.00277583
0.00375855
0.00362369
0.00375931
0.00362351
0.00269183
0.00269181
0.00269044
0.00269041
0.00361831
0.0036183
0.00361775
0.00361775
0.00277601
0.00571245
0.00277519
0.0057187
0.00362364
0.003758
0.00362345
0.00375875
0.0509343
0.0697671
0.0509982
0.0698801
0.0058691
0.0105915
0.00587552
0.0106058
0.0695513
0.0508497
0.0696743
0.0509176
0.0105654
0.00585878
0.0105802
0.00586584
0.00570953
0.00277645
0.00571646
0.00277539
0.00375649
0.00362191
0.00375738
0.00362252
0.00269194
0.00269192
0.00269054
0.00269052
0.00361627
0.00361627
0.00361692
0.00361692
0.00277582
0.00570115
0.00277475
0.00570802
0.00362186
0.00375595
0.00362247
0.00375683
0.0508292
0.0695733
0.0508966
0.069696
0.005857
0.010567
0.005864
0.0105816
0.0693442
0.0507436
0.0694745
0.050812
0.0105404
0.00584627
0.0105555
0.00585354
0.00569788
0.00277594
0.00570493
0.00277512
0.0037542
0.00362022
0.0037552
0.00362085
0.00269204
0.00269202
0.00269065
0.00269062
0.00361468
0.00361468
0.00361519
0.00361519
0.00277531
0.00568957
0.00277449
0.00569657
0.00362017
0.00375366
0.0036208
0.00375466
0.0507237
0.0693669
0.0507917
0.0694968
0.00584454
0.0105421
0.00585177
0.0105571
0.069123
0.0506377
0.0692607
0.050706
0.0105149
0.00583393
0.0105302
0.00584096
0.00568614
0.00277575
0.00569319
0.00277467
0.00375162
0.00361831
0.00375276
0.00361903
0.00269217
0.00269214
0.00269075
0.00269072
0.00361275
0.00361275
0.00361347
0.00361346
0.00277512
0.00567777
0.00277404
0.00568488
0.00361825
0.00375108
0.00361898
0.00375222
0.0506173
0.0691451
0.050686
0.0692835
0.00583216
0.0105167
0.00583923
0.0105319
0.0688864
0.0505304
0.0690329
0.0506003
0.010489
0.0058224
0.0105046
0.00582899
0.00567432
0.00277527
0.00568147
0.00277442
0.0037487
0.00361598
0.00375001
0.00361693
0.00269229
0.00269227
0.00269087
0.00269085
0.00361049
0.00361049
0.00361136
0.00361136
0.00277464
0.00566591
0.00277378
0.00567307
0.00361593
0.00374815
0.00361687
0.00374946
0.0505095
0.0689078
0.0505796
0.0690546
0.00582061
0.0104906
0.0058272
0.0105063
0.0686332
0.0504212
0.0687887
0.0504924
0.0104624
0.00581073
0.0104784
0.00581755
0.00566249
0.0027751
0.00566967
0.002774
0.00374539
0.00361332
0.00374689
0.00361441
0.00269244
0.00269241
0.002691
0.00269097
0.00360783
0.00360783
0.00360889
0.00360889
0.00277447
0.00565402
0.00277337
0.00566123
0.00361327
0.00374484
0.00361436
0.00374634
0.0503997
0.0686537
0.0504713
0.0688098
0.00580888
0.0104639
0.00581573
0.01048
0.0683614
0.0503097
0.0685276
0.0503829
0.0104348
0.00579848
0.0104515
0.00580566
0.00565062
0.00277466
0.00565791
0.00277378
0.00374163
0.00361017
0.00374336
0.00361152
0.00269259
0.00269256
0.00269114
0.00269112
0.00360473
0.00360473
0.00360601
0.00360601
0.00277403
0.00564208
0.00277315
0.0056494
0.00361012
0.00374108
0.00361147
0.00374281
0.0502875
0.0683808
0.050361
0.0685474
0.00579658
0.0104362
0.00580379
0.010453
0.0680662
0.0501936
0.0682451
0.0502697
0.0104058
0.00578541
0.0104233
0.00579303
0.00563844
0.00277462
0.00564591
0.00277341
0.00373737
0.00360661
0.00373934
0.00360812
0.00269277
0.00269274
0.00269129
0.00269127
0.00360115
0.00360114
0.00360266
0.00360266
0.00277399
0.00562991
0.00277277
0.00563736
0.00360656
0.00373682
0.00360807
0.00373879
0.0501714
0.0680852
0.0502474
0.0682642
0.00578351
0.0104072
0.00579113
0.0104247
0.0677466
0.0500737
0.0679383
0.050152
0.0103754
0.00577156
0.0103936
0.00577959
0.00562606
0.00277442
0.00563365
0.0027733
0.00373255
0.00360248
0.0037348
0.00360427
0.00269296
0.00269293
0.00269148
0.00269145
0.00359702
0.00359702
0.0035988
0.0035988
0.0027738
0.00561755
0.00277267
0.00562512
0.00360242
0.003732
0.00360422
0.00373425
0.0500515
0.0677655
0.0501298
0.0679573
0.00576967
0.0103768
0.00577769
0.010395
0.0674021
0.0499506
0.0676071
0.0500309
0.0103435
0.00575693
0.0103625
0.00576538
0.00561356
0.00277419
0.00562124
0.00277306
0.00372712
0.00359774
0.00372967
0.00359983
0.00269315
0.00269313
0.00269166
0.00269164
0.00359231
0.00359231
0.00359438
0.00359438
0.00277356
0.00560509
0.00277243
0.00561274
0.00359769
0.00372658
0.00359978
0.00372912
0.0499285
0.0674209
0.0500088
0.067626
0.00575505
0.0103449
0.00576349
0.0103639
0.067031
0.0498238
0.0672503
0.0499066
0.0103101
0.00574144
0.01033
0.00575035
0.00560095
0.00277397
0.00560873
0.00277283
0.00372104
0.00359236
0.00372391
0.00359476
0.00269337
0.00269335
0.00269187
0.00269184
0.00358695
0.00358695
0.00358934
0.00358933
0.00277334
0.00559251
0.0027722
0.00560026
0.00359231
0.00372049
0.00359471
0.00372337
0.0498019
0.0670498
0.0498846
0.0672691
0.00573957
0.0103115
0.00574847
0.0103314
0.0666317
0.0496933
0.0668659
0.0497785
0.0102751
0.00572502
0.0102959
0.00573443
0.0055882
0.00277376
0.00559608
0.00277261
0.00371423
0.00358628
0.00371746
0.00358903
0.00269361
0.00269358
0.00269209
0.00269207
0.00358089
0.00358089
0.00358362
0.00358362
0.00277314
0.00557979
0.00277199
0.00558765
0.00358623
0.00371369
0.00358898
0.00371692
0.0496716
0.0666504
0.0497566
0.0668846
0.00572316
0.0102765
0.00573256
0.0102972
0.0662027
0.0495588
0.0664525
0.0496465
0.0102383
0.00570759
0.0102601
0.00571754
0.00557529
0.00277357
0.00558329
0.00277241
0.00370666
0.00357944
0.00371027
0.00358256
0.00269386
0.00269383
0.00269233
0.00269231
0.00357408
0.00357408
0.00357718
0.00357718
0.00277295
0.00556692
0.00277179
0.0055749
0.00357939
0.00370612
0.00358251
0.00370973
0.0495372
0.0662213
0.0496247
0.0664711
0.00570575
0.0102397
0.00571569
0.0102614
0.0657429
0.04942
0.0660088
0.0495103
0.0101997
0.00568908
0.0102224
0.0056996
0.0055622
0.0027734
0.00557034
0.00277222
0.00369825
0.00357178
0.00370228
0.00357531
0.00269413
0.0026941
0.00269259
0.00269257
0.00356645
0.00356645
0.00356996
0.00356995
0.00277278
0.00555387
0.00277161
0.00556198
0.00357173
0.00369772
0.00357526
0.00370174
0.0493985
0.0657613
0.0494887
0.0660272
0.00568726
0.0102011
0.00569776
0.0102238
0.0652513
0.0492767
0.0655337
0.0493697
0.0101592
0.00566943
0.0101829
0.00568055
0.00554896
0.00277324
0.0055572
0.00277206
0.00368896
0.00356326
0.00369343
0.00356721
0.00269441
0.00269439
0.00269287
0.00269284
0.00355796
0.00355795
0.00356189
0.00356188
0.00277263
0.00554068
0.00277144
0.00554889
0.00356321
0.00368843
0.00356716
0.00369289
0.0492554
0.0652696
0.0493483
0.065552
0.00566761
0.0101605
0.00567872
0.0101843
0.0647279
0.049129
0.0650267
0.0492247
0.0101168
0.00564856
0.0101415
0.00566031
0.00553557
0.0027731
0.00554393
0.00277191
0.00367874
0.00355382
0.00368366
0.00355822
0.00269471
0.00269469
0.00269316
0.00269313
0.00354855
0.00354854
0.00355293
0.00355292
0.00277249
0.00552733
0.0027713
0.00553566
0.00355377
0.00367821
0.00355817
0.00368313
0.0491079
0.064746
0.0492035
0.0650449
0.00564676
0.0101181
0.00565851
0.0101428
0.064173
0.0489769
0.0644879
0.0490753
0.0100725
0.00562644
0.0100982
0.00563884
0.00552198
0.00277296
0.00553048
0.00277177
0.00366754
0.00354341
0.00367294
0.00354829
0.00269502
0.002695
0.00269346
0.00269344
0.00353817
0.00353817
0.00354303
0.00354302
0.00277236
0.00551379
0.00277116
0.00552225
0.00354336
0.00366701
0.00354824
0.00367241
0.048956
0.064191
0.0490542
0.064506
0.00562466
0.0100738
0.00563705
0.0100995
0.0635876
0.0488206
0.0639181
0.0489215
0.0100264
0.00560302
0.0100531
0.0056161
0.00550823
0.00277284
0.00551684
0.00277164
0.00365531
0.00353201
0.00366122
0.00353737
0.00269534
0.00269532
0.00269378
0.00269375
0.0035268
0.0035268
0.00353214
0.00353214
0.00277223
0.00550008
0.00277103
0.00550866
0.00353196
0.00365479
0.00353732
0.0036607
0.0487999
0.0636054
0.0489007
0.063936
0.00560126
0.0100277
0.00561432
0.0100543
0.0629734
0.0486605
0.0633184
0.0487637
0.00997858
0.00557829
0.0100061
0.00559204
0.00549431
0.00277271
0.00550304
0.00277151
0.00364204
0.00351956
0.00364846
0.00352544
0.00269566
0.00269564
0.00269409
0.00269407
0.0035144
0.00351439
0.00352024
0.00352024
0.00277211
0.00548622
0.00277091
0.00549491
0.00351952
0.00364153
0.00352539
0.00364794
0.04864
0.0629911
0.048743
0.0633362
0.00557655
0.0099798
0.00559029
0.0100073
0.062333
0.048497
0.0626912
0.0486022
0.00992919
0.00555226
0.0099575
0.00556668
0.00548028
0.00277259
0.00548909
0.00277139
0.0036277
0.00350607
0.00363464
0.00351245
0.00269598
0.00269595
0.00269441
0.00269439
0.00350094
0.00350094
0.0035073
0.0035073
0.00277199
0.00547224
0.00277079
0.00548102
0.00350602
0.00362719
0.00351241
0.00363413
0.0484767
0.0623505
0.0485817
0.0627088
0.00555053
0.00993039
0.00556494
0.00995871
0.0616697
0.0483307
0.0620392
0.0484376
0.00987848
0.00552494
0.00990745
0.00554001
0.00546616
0.00277245
0.00547504
0.00277126
0.00361229
0.00349151
0.00361975
0.00349841
0.00269628
0.00269626
0.00269473
0.0026947
0.00348642
0.00348642
0.00349329
0.00349329
0.00277186
0.00545818
0.00277067
0.00546702
0.00349147
0.00361178
0.00349836
0.00361924
0.0483106
0.061687
0.0484174
0.0620566
0.00552323
0.00987965
0.00553829
0.00990864
0.0609875
0.0481625
0.0613662
0.0482706
0.00982669
0.00549638
0.00985619
0.00551207
0.00545201
0.0027723
0.00546093
0.00277112
0.0035958
0.00347589
0.00360378
0.00348331
0.00269657
0.00269654
0.00269502
0.002695
0.00347084
0.00347084
0.00347823
0.00347822
0.00277171
0.00544409
0.00277053
0.00545297
0.00347585
0.00359529
0.00348326
0.00360327
0.0481427
0.0610046
0.0482507
0.0613834
0.00549469
0.00982784
0.00551037
0.00985735
0.0602911
0.0479932
0.0606765
0.0481022
0.00977415
0.00546663
0.00980401
0.00548292
0.00543788
0.00277213
0.00544681
0.00277096
0.00357825
0.00345923
0.00358674
0.00346714
0.00269683
0.0026968
0.0026953
0.00269527
0.00345421
0.00345421
0.0034621
0.0034621
0.00277154
0.00543002
0.00277037
0.00543891
0.00345918
0.00357775
0.00346709
0.00358624
0.0479737
0.0603081
0.0480825
0.0606935
0.00546497
0.00977528
0.00548124
0.00980515
0.0595858
0.047824
0.0599751
0.0479331
0.00972121
0.0054358
0.00975125
0.00545262
0.00542385
0.00277192
0.00543275
0.00277077
0.00355968
0.00344154
0.00356867
0.00344994
0.00269705
0.00269702
0.00269554
0.00269552
0.00343657
0.00343657
0.00344494
0.00344494
0.00277134
0.00541605
0.00277019
0.00542491
0.00344149
0.00355919
0.0034499
0.00356817
0.0478047
0.0596025
0.0479136
0.059992
0.00543415
0.00972232
0.00545097
0.00975236
0.0588774
0.0476558
0.0592677
0.0477645
0.00966826
0.00540398
0.00969826
0.00542128
0.00540998
0.00277168
0.0054188
0.00277055
0.00354014
0.00342288
0.00354958
0.00343175
0.00269722
0.00269719
0.00269574
0.00269572
0.00341795
0.00341795
0.00342679
0.00342678
0.0027711
0.00540224
0.00276997
0.00541102
0.00342283
0.00353964
0.0034317
0.00354909
0.0476367
0.0588939
0.0477453
0.0592844
0.00540235
0.00966934
0.00541964
0.00969936
0.0581719
0.0474898
0.0585601
0.0475974
0.00961568
0.00537129
0.00964546
0.005389
0.00539635
0.00277139
0.00540505
0.00277029
0.00351967
0.00340329
0.00352955
0.00341259
0.00269733
0.00269731
0.00269589
0.00269586
0.0033984
0.0033984
0.00340768
0.00340767
0.00277082
0.00538867
0.00276972
0.00539733
0.00340325
0.00351918
0.00341255
0.00352906
0.047471
0.0581882
0.0475785
0.0585765
0.00536968
0.00961674
0.00538739
0.00964653
0.0574756
0.0473271
0.0578585
0.0474331
0.00956391
0.00533787
0.00959325
0.00535592
0.00538303
0.00277104
0.00539157
0.00276998
0.00349835
0.00338285
0.00350863
0.00339255
0.00269737
0.00269735
0.00269597
0.00269595
0.003378
0.003378
0.00338768
0.00338767
0.00277048
0.00537541
0.00276941
0.00538391
0.00338281
0.00349786
0.00339251
0.00350814
0.0473086
0.0574917
0.0474145
0.0578748
0.00533629
0.00956495
0.00535433
0.00959429
0.0567947
0.047169
0.0571692
0.0472727
0.00951335
0.00530387
0.00954204
0.00532219
0.00537009
0.00277064
0.00537844
0.00276961
0.00347626
0.00336163
0.00348689
0.00337169
0.00269733
0.00269731
0.00269598
0.00269595
0.00335682
0.00335682
0.00336686
0.00336685
0.00277007
0.00536253
0.00276904
0.00537084
0.00336159
0.00347578
0.00337165
0.00348641
0.0471507
0.0568106
0.0472543
0.0571853
0.00530231
0.00951436
0.00532061
0.00954306
0.0561353
0.0470166
0.0564984
0.0471173
0.00946441
0.00526946
0.00949225
0.00528796
0.00535764
0.00277016
0.00536571
0.00276917
0.00345349
0.00333973
0.00346444
0.0033501
0.00269721
0.00269719
0.0026959
0.00269588
0.00333495
0.00333495
0.0033453
0.0033453
0.0027696
0.00535013
0.00276861
0.00535817
0.00333968
0.00345302
0.00335005
0.00346396
0.0469985
0.0561511
0.0470992
0.0565143
0.00526791
0.0094654
0.0052864
0.00949325
0.0555031
0.0468709
0.055852
0.0469682
0.00941747
0.00523478
0.00944426
0.00525339
0.00534567
0.00276961
0.00535352
0.00276867
0.00343015
0.00331722
0.00344135
0.00332786
0.00269699
0.00269697
0.00269574
0.00269572
0.00331249
0.00331249
0.0033231
0.0033231
0.00276906
0.00533822
0.00276811
0.00534603
0.00331718
0.00342968
0.00332782
0.00344088
0.0468531
0.0555187
0.0469502
0.0558678
0.00523326
0.00941843
0.00525185
0.00944524
0.0549035
0.046733
0.0552355
0.0468262
0.00937286
0.00520002
0.00939845
0.00521865
0.00533427
0.00276899
0.00534183
0.00276809
0.00340633
0.00329423
0.00341774
0.00330508
0.00269668
0.00269666
0.00269549
0.00269546
0.00328953
0.00328953
0.00330035
0.00330035
0.00276843
0.00532687
0.00276753
0.0053344
0.00329418
0.00340587
0.00330503
0.00341727
0.0467155
0.054919
0.0468085
0.0552511
0.00519851
0.00937381
0.00521713
0.00939941
0.0543413
0.0466041
0.0546541
0.0466927
0.0093309
0.00516532
0.00935514
0.0051839
0.00532349
0.00276828
0.00533075
0.00276743
0.00338215
0.00327084
0.0033937
0.00328185
0.00269626
0.00269624
0.00269513
0.00269511
0.00326618
0.00326618
0.00327717
0.00327716
0.00276773
0.00531614
0.00276688
0.00532336
0.0032708
0.00338169
0.00328181
0.00339324
0.0465867
0.0543566
0.0466752
0.0546695
0.00516383
0.00933182
0.0051824
0.00935608
0.05382
0.046484
0.0541124
0.0465687
0.00929181
0.00513084
0.0093146
0.0051493
0.00531334
0.0027675
0.0053203
0.0027667
0.00335771
0.00324717
0.00336936
0.00325829
0.00269575
0.00269573
0.00269468
0.00269466
0.00324255
0.00324255
0.00325364
0.00325364
0.00276695
0.00530603
0.00276615
0.00531296
0.00324713
0.00335726
0.00325824
0.0033689
0.0464669
0.0538351
0.0465514
0.0541276
0.00512937
0.00929272
0.00514781
0.00931552
0.0533511
0.0463688
0.0536112
0.0464532
0.00925624
0.00509666
0.00927703
0.005115
0.00530382
0.00276663
0.00531052
0.00276589
0.00333313
0.00322332
0.00334482
0.00323449
0.00269513
0.00269511
0.00269413
0.00269411
0.00321874
0.00321874
0.00322988
0.00322988
0.00276609
0.00529655
0.00276534
0.00530322
0.00322328
0.00333268
0.00323445
0.00334436
0.0463517
0.0533661
0.0464361
0.0536263
0.0050952
0.00925713
0.00511353
0.00927793
0.0531458
0.0457544
0.0531578
0.0462895
0.0092116
0.00504381
0.00924274
0.00507966
0.00526366
0.00276495
0.00529778
0.00276493
0.0033072
0.00319872
0.00332016
0.00321061
0.00269425
0.00269423
0.00269348
0.00269345
0.00319419
0.00319418
0.00320604
0.00320604
0.00276441
0.00525656
0.00276438
0.00529054
0.00319868
0.00330675
0.00321057
0.00331971
0.0457377
0.0531604
0.0462725
0.0531727
0.00504238
0.00921245
0.0050782
0.00924362
0.0652714
0.0482006
0.0372111
0.0295103
0.0650279
0.0478669
0.0374838
0.0290579
0.00571868
0.00311492
0.0055551
0.00458459
0.00569592
0.00311556
0.0055415
0.00459092
0.00304197
0.00304195
0.00456067
0.00456067
0.00304311
0.00304309
0.0045673
0.00456729
0.00311445
0.00571236
0.00458452
0.0055538
0.00311509
0.00568972
0.00459085
0.00554027
0.048183
0.0652866
0.0295069
0.0372142
0.0478495
0.0650427
0.0290546
0.0374867
0.0755136
0.0548095
0.0737606
0.0536952
0.0751087
0.0544922
0.0734347
0.0534575
0.0060593
0.00276759
0.00597963
0.00281571
0.00603362
0.0027672
0.0059592
0.00281547
0.00267277
0.00267274
0.0027248
0.00272477
0.00267293
0.0026729
0.002725
0.00272497
0.00276684
0.00604903
0.00281502
0.00597015
0.00276646
0.00602355
0.0028148
0.00594985
0.054782
0.0755372
0.05367
0.0737822
0.0544655
0.0751322
0.0534328
0.0734557
0.0759205
0.0550627
0.0759212
0.0550711
0.0751792
0.0545723
0.075217
0.0545456
0.00607332
0.00276174
0.00607614
0.00276102
0.00603514
0.00276105
0.00603812
0.00276033
0.00266686
0.00266683
0.00266559
0.00266556
0.00266703
0.002667
0.00266575
0.00266572
0.00276098
0.00606281
0.00276026
0.00606568
0.0027603
0.00602478
0.00275959
0.00602792
0.0550342
0.0759439
0.055043
0.0759453
0.0545444
0.075202
0.0545186
0.0752408
0.075834
0.0550025
0.0759299
0.0550634
0.0752595
0.0546351
0.0753043
0.0546699
0.00606334
0.00276152
0.00607089
0.00276051
0.00603348
0.00276101
0.00603853
0.00275994
0.00266701
0.00266698
0.0026656
0.00266557
0.00266719
0.00266716
0.00266577
0.00266575
0.00276076
0.00605292
0.00275976
0.00606043
0.00276027
0.00602333
0.0027592
0.00602831
0.054975
0.075859
0.0550356
0.0759544
0.0546089
0.0752846
0.0546429
0.0753286
0.0756577
0.0549003
0.0757815
0.0549717
0.0751022
0.0545465
0.0752229
0.0546155
0.00605014
0.00276087
0.00605831
0.00276012
0.00602187
0.00276041
0.00602977
0.00275965
0.00266704
0.00266701
0.00266566
0.00266563
0.00266722
0.00266719
0.00266584
0.00266581
0.00276012
0.00603964
0.00275936
0.00604782
0.00275966
0.0060116
0.0027589
0.00601946
0.0548721
0.0756816
0.0549437
0.0758061
0.0545195
0.0751264
0.0545883
0.0752472
0.0754474
0.0547854
0.0755853
0.0548613
0.0748882
0.0544304
0.0750281
0.0545074
0.00603631
0.00276051
0.00604467
0.00275952
0.00600794
0.00276004
0.00601643
0.00275906
0.00266707
0.00266704
0.00266568
0.00266565
0.00266725
0.00266722
0.00266586
0.00266583
0.00275976
0.00602604
0.00275877
0.00603425
0.00275929
0.00599755
0.00275831
0.00600606
0.0547588
0.0754731
0.0548336
0.0756097
0.0544024
0.074911
0.0544795
0.0750514
0.0752255
0.054672
0.0753692
0.0547473
0.0746578
0.054311
0.0748056
0.0543895
0.00602326
0.00275989
0.0060313
0.0027591
0.00599406
0.0027594
0.00600252
0.00275862
0.00266709
0.00266706
0.0026657
0.00266567
0.00266727
0.00266725
0.00266588
0.00266585
0.00275914
0.00601282
0.00275836
0.00602096
0.00275866
0.00598384
0.00275788
0.00599222
0.0546441
0.0752496
0.0547202
0.0753945
0.0542841
0.0746818
0.054362
0.0748288
0.0749878
0.0545571
0.0751407
0.0546338
0.0744124
0.0541891
0.0745682
0.0542689
0.00601013
0.00275955
0.00601826
0.00275854
0.00598026
0.00275905
0.00598865
0.00275804
0.00266713
0.0026671
0.00266572
0.00266569
0.00266731
0.00266728
0.0026659
0.00266587
0.00275881
0.00599981
0.0027578
0.00600789
0.00275831
0.00597008
0.0027573
0.00597847
0.05453
0.0750126
0.0546064
0.0751653
0.0541624
0.0744367
0.0542422
0.0745925
0.0747372
0.0544441
0.0748974
0.0545204
0.074154
0.0540678
0.0743171
0.0541474
0.00599747
0.00275896
0.00600542
0.00275815
0.00596684
0.00275844
0.00597507
0.00275764
0.00266715
0.00266712
0.00266574
0.00266572
0.00266734
0.00266731
0.00266593
0.0026659
0.00275822
0.0059871
0.00275741
0.00599506
0.00275771
0.00595668
0.0027569
0.00596491
0.0544165
0.0747613
0.054493
0.074922
0.0540411
0.0741781
0.0541209
0.0743413
0.0744691
0.0543297
0.0746397
0.0544076
0.0738794
0.0539467
0.0740522
0.0540274
0.00598471
0.00275864
0.00599283
0.00275762
0.00595361
0.00275812
0.00596186
0.00275709
0.00266719
0.00266716
0.00266577
0.00266574
0.00266738
0.00266735
0.00266595
0.00266593
0.0027579
0.00597429
0.00275687
0.00598239
0.00275738
0.00594339
0.00275636
0.00595165
0.0543015
0.0744923
0.0543795
0.0746632
0.0539194
0.0739023
0.0540003
0.0740757
0.0741812
0.0542134
0.0743625
0.0542926
0.0735849
0.0538242
0.0737687
0.0539061
0.00597185
0.00275808
0.00598001
0.00275724
0.00594045
0.00275755
0.00594871
0.00275671
0.00266722
0.00266719
0.0026658
0.00266577
0.00266741
0.00266738
0.00266599
0.00266596
0.00275733
0.0059615
0.0027565
0.00596961
0.00275681
0.00593027
0.00275598
0.00593848
0.0541858
0.0742048
0.0542646
0.0743859
0.053797
0.0736077
0.0538787
0.0737914
0.0738722
0.0540953
0.0740653
0.054176
0.0732679
0.0536994
0.0734641
0.0537831
0.00595893
0.00275776
0.00596717
0.00275673
0.00592725
0.00275724
0.00593559
0.0027562
0.00266726
0.00266723
0.00266582
0.00266579
0.00266746
0.00266743
0.00266602
0.00266599
0.00275702
0.00594863
0.00275599
0.00595684
0.00275651
0.00591714
0.00275546
0.00592543
0.0540679
0.0738959
0.0541485
0.0740891
0.0536726
0.073291
0.0537561
0.0734871
0.0735395
0.0539751
0.0737453
0.0540573
0.0729267
0.0535722
0.0731358
0.0536575
0.00594599
0.00275722
0.00595428
0.00275636
0.00591404
0.0027567
0.00592242
0.00275583
0.00266729
0.00266726
0.00266586
0.00266583
0.0026675
0.00266747
0.00266606
0.00266603
0.00275648
0.00593572
0.00275562
0.00594398
0.00275597
0.00590396
0.0027551
0.00591231
0.0539478
0.0735631
0.0540299
0.0737691
0.0535455
0.0729497
0.0536307
0.073159
0.0731825
0.0538534
0.0734014
0.0539368
0.0725603
0.0534432
0.0727829
0.0535299
0.00593312
0.00275693
0.0059414
0.00275587
0.00590089
0.0027565
0.00590926
0.00275535
0.00266734
0.00266731
0.00266589
0.00266586
0.00266756
0.00266753
0.0026661
0.00266607
0.00275619
0.00592288
0.00275514
0.00593113
0.00275578
0.00589084
0.00275463
0.00589919
0.0538263
0.0732061
0.0539095
0.073425
0.0534167
0.0725832
0.0535032
0.0728059
0.0727998
0.0537302
0.0730327
0.0538149
0.0721674
0.0533124
0.0724044
0.0534006
0.00592036
0.00275669
0.00592862
0.00275553
0.00588781
0.0027562
0.00589619
0.00275509
0.0026674
0.00266738
0.00266594
0.00266591
0.00266762
0.0026676
0.00266616
0.00266613
0.00275596
0.00591015
0.0027548
0.00591839
0.00275548
0.0058778
0.00275437
0.00588615
0.0537033
0.0728232
0.0537878
0.0730562
0.053286
0.0721903
0.0533741
0.0724273
0.0723896
0.0536055
0.0726372
0.0536915
0.0717465
0.0531798
0.0719984
0.0532694
0.00590768
0.00275638
0.00591595
0.00275528
0.0058748
0.00275585
0.00588319
0.00275476
0.00266747
0.00266744
0.002666
0.00266597
0.00266769
0.00266766
0.00266622
0.00266619
0.00275566
0.00589751
0.00275455
0.00590575
0.00275513
0.00586482
0.00275404
0.00587319
0.0535787
0.0724129
0.0536645
0.0726606
0.0531535
0.0717692
0.053243
0.0720212
0.0719504
0.053479
0.0722134
0.0535664
0.071296
0.053045
0.0715636
0.0531362
0.00589507
0.00275603
0.00590335
0.00275494
0.00586184
0.0027555
0.00587025
0.0027544
0.00266753
0.0026675
0.00266606
0.00266603
0.00266776
0.00266773
0.00266629
0.00266626
0.00275531
0.00588494
0.00275421
0.00589319
0.00275478
0.00585191
0.00275368
0.00586029
0.0534524
0.0719736
0.0535396
0.0722368
0.053019
0.0713186
0.05311
0.0715863
0.0714806
0.0533506
0.0717598
0.0534394
0.0708146
0.052908
0.0710984
0.0530008
0.00588254
0.00275569
0.00589083
0.00275459
0.00584892
0.00275516
0.00585736
0.00275405
0.00266761
0.00266758
0.00266613
0.0026661
0.00266784
0.00266782
0.00266636
0.00266633
0.00275497
0.00587245
0.00275386
0.0058807
0.00275444
0.00583903
0.00275334
0.00584743
0.0533241
0.0715037
0.0534127
0.071783
0.0528821
0.0708371
0.0529748
0.071121
0.0709795
0.0532199
0.0712751
0.0533102
0.0703014
0.0527685
0.0706019
0.052863
0.00587007
0.00275538
0.00587836
0.00275426
0.00583604
0.00275484
0.0058445
0.00275372
0.00266769
0.00266767
0.00266621
0.00266618
0.00266794
0.00266791
0.00266645
0.00266642
0.00275466
0.00586002
0.00275354
0.00586828
0.00275413
0.00582619
0.00275301
0.00583462
0.0531936
0.0710024
0.0532838
0.0712982
0.0527428
0.0703238
0.0528372
0.0706244
0.070447
0.0530874
0.070759
0.0531791
0.0697564
0.0526267
0.0700735
0.0527228
0.00585773
0.00275508
0.005866
0.00275395
0.0058232
0.00275454
0.00583168
0.00275341
0.0026678
0.00266777
0.0026663
0.00266627
0.00266805
0.00266802
0.00266655
0.00266652
0.00275437
0.00584772
0.00275323
0.00585596
0.00275383
0.0058134
0.0027527
0.00582184
0.0530613
0.0704698
0.0531528
0.0707819
0.0526012
0.0697785
0.0526972
0.0700957
0.069883
0.0529529
0.0702113
0.053046
0.0691795
0.0524825
0.0695131
0.0525802
0.00584548
0.00275481
0.00585374
0.00275367
0.00581041
0.00275426
0.0058189
0.00275312
0.00266791
0.00266789
0.00266641
0.00266638
0.00266818
0.00266815
0.00266667
0.00266664
0.0027541
0.00583552
0.00275295
0.00584374
0.00275356
0.00580065
0.00275241
0.00580911
0.052927
0.0699056
0.0530199
0.0702341
0.0524573
0.0692015
0.0525548
0.0695352
0.0692884
0.0528168
0.0696324
0.052911
0.0685718
0.0523363
0.0689211
0.0524355
0.00583335
0.00275457
0.00584158
0.00275341
0.00579767
0.00275401
0.00580618
0.00275286
0.00266805
0.00266802
0.00266653
0.0026665
0.00266833
0.0026683
0.0026668
0.00266678
0.00275386
0.00582343
0.0027527
0.00583163
0.00275331
0.00578796
0.00275215
0.00579643
0.0527912
0.0693109
0.0528852
0.069655
0.0523112
0.0685936
0.0524103
0.0689431
0.0686677
0.0526818
0.0690237
0.0527751
0.0679347
0.0521881
0.068299
0.0522886
0.0058214
0.00275436
0.00582957
0.00275318
0.005785
0.0027538
0.00579351
0.00275262
0.00266821
0.00266818
0.00266668
0.00266665
0.00266849
0.00266847
0.00266696
0.00266694
0.00275365
0.00581153
0.00275247
0.00581966
0.0027531
0.00577535
0.00275192
0.00578381
0.0526564
0.0686901
0.0527495
0.0690461
0.0521634
0.0679564
0.0522637
0.0683207
0.0680185
0.0525425
0.068391
0.0526394
0.0672707
0.0520383
0.0676486
0.05214
0.00580945
0.00275418
0.00581766
0.00275299
0.00577242
0.00275361
0.00578091
0.00275242
0.00266839
0.00266837
0.00266685
0.00266682
0.00266869
0.00266866
0.00266714
0.00266712
0.00275347
0.00579963
0.00275228
0.00580781
0.00275291
0.00576282
0.00275172
0.00577127
0.0525173
0.0680406
0.052614
0.0684133
0.0520138
0.0672922
0.0521153
0.0676702
0.0673423
0.0524011
0.0677277
0.0524991
0.0665829
0.0518874
0.0669726
0.0519899
0.00579761
0.00275403
0.00580579
0.00275282
0.00575997
0.00275345
0.00576842
0.00275225
0.0026686
0.00266857
0.00266705
0.00266702
0.0026689
0.00266888
0.00266735
0.00266732
0.00275333
0.00578784
0.00275212
0.00579599
0.00275276
0.00575042
0.00275156
0.00575884
0.0523762
0.0673642
0.052474
0.0677498
0.0518631
0.0666041
0.0519654
0.066994
0.0666455
0.052259
0.0670411
0.0523576
0.0658752
0.051736
0.0662747
0.0518389
0.00578592
0.00275392
0.00579405
0.0027527
0.00574767
0.00275333
0.00575606
0.00275212
0.00266884
0.00266881
0.00266727
0.00266724
0.00266915
0.00266912
0.00266758
0.00266755
0.00275322
0.00577621
0.00275199
0.0057843
0.00275265
0.00573818
0.00275143
0.00574653
0.0522343
0.0666673
0.0523328
0.0670629
0.051712
0.0658962
0.0518148
0.0662958
0.0659325
0.0521167
0.0663359
0.0522157
0.0651523
0.0515847
0.0655591
0.0516878
0.00577443
0.00275385
0.00578248
0.00275261
0.00573557
0.00275325
0.00574388
0.00275202
0.0026691
0.00266907
0.00266752
0.00266749
0.00266941
0.00266939
0.00266784
0.00266781
0.00275315
0.00576478
0.00275191
0.00577278
0.00275257
0.00572614
0.00275133
0.00573441
0.0520924
0.065954
0.0521912
0.0663576
0.0515609
0.0651732
0.0516639
0.06558
0.0652084
0.0519751
0.0656169
0.052074
0.0644197
0.0514342
0.0648309
0.0515371
0.00576318
0.00275382
0.00577112
0.00275255
0.00572373
0.0027532
0.00573192
0.00275195
0.00266939
0.00266936
0.0026678
0.00266777
0.0026697
0.00266968
0.00266812
0.00266809
0.00275312
0.00575358
0.00275186
0.00576148
0.00275252
0.00571435
0.00275127
0.0057225
0.0519509
0.0652297
0.0520497
0.0656384
0.0514108
0.0644403
0.0515135
0.0648516
0.0644791
0.0518347
0.0648898
0.0519332
0.063683
0.0512856
0.0640956
0.0513877
0.00575221
0.00275381
0.00576002
0.00275255
0.00571218
0.00275319
0.00572023
0.00275192
0.0026697
0.00266967
0.00266811
0.00266808
0.00267002
0.00266999
0.00266842
0.0026684
0.00275312
0.00574267
0.00275184
0.00575043
0.00275251
0.00570287
0.00275124
0.00571087
0.0518108
0.0645003
0.0519092
0.0649111
0.0512625
0.0637034
0.0513644
0.0641162
0.0637508
0.0516964
0.0641604
0.051794
0.0629484
0.0511395
0.0633594
0.0512404
0.0057416
0.00275385
0.00574922
0.00275256
0.00570101
0.0027532
0.00570885
0.00275192
0.00267003
0.00267001
0.00266843
0.00266841
0.00267034
0.00267032
0.00266875
0.00266872
0.00275316
0.0057321
0.00275187
0.00573968
0.00275253
0.00569175
0.00275125
0.00569955
0.0516729
0.0637717
0.0517703
0.0641815
0.0511167
0.0629686
0.0512174
0.0633798
0.0630298
0.051561
0.0634351
0.0516574
0.0622226
0.0509969
0.0626286
0.0510962
0.00573132
0.00275393
0.00573879
0.00275262
0.00569021
0.00275324