/*--------------------------------*- C++ -*----------------------------------*\
  =========                 |
  \\      /  F ield         | OpenFOAM: The Open Source CFD Toolbox
   \\    /   O peration     | Website:  https://openfoam.org
    \\  /    A nd           | Version:  9
     \\/     M anipulation  |
\*---------------------------------------------------------------------------*/
FoamFile
{
    format      ascii;
    class       volScalarField;
    location    "0.35";
    object      k;
}
// * * * * * * * * * * * * * * * * * * * * * * * * * * * * * * * * * * * * * //

dimensions      [0 2 -2 0 0 0 0];

internalField   nonuniform List<scalar> 
36360
(
0.0199884
0.0157742
0.0123456
0.0105634
0.00473874
0.00328994
0.00409
0.00331095
0.00342993
0.00237006
0.00327902
0.0028518
0.00259558
0.00254632
0.00303179
0.00301201
0.00232828
0.00232827
0.00283748
0.00283748
0.00254399
0.00254399
0.00301088
0.00301088
0.00236981
0.00342772
0.00285175
0.00327844
0.0025463
0.00259542
0.00301201
0.00303176
0.0157695
0.0199924
0.0105625
0.0123464
0.00328946
0.00473901
0.00331089
0.00409003
0.022765
0.0176916
0.0222973
0.017351
0.00498187
0.00334021
0.00495808
0.00332671
0.00359006
0.00225101
0.00355622
0.00226792
0.00248183
0.00242105
0.00249808
0.00243923
0.00219701
0.00219699
0.00221615
0.00221613
0.00241832
0.00241832
0.00243656
0.00243655
0.00225063
0.00358636
0.00226757
0.00355282
0.00242102
0.00248159
0.0024392
0.00249786
0.0176843
0.0227716
0.0173443
0.022303
0.00333947
0.00498229
0.00332604
0.00495849
0.0228523
0.0177686
0.0228578
0.0177694
0.00496408
0.00334393
0.00497396
0.00334311
0.00359656
0.00224811
0.0035975
0.00224867
0.00247909
0.00241886
0.00247949
0.0024185
0.00219472
0.0021947
0.00219425
0.00219423
0.00241624
0.00241623
0.0024158
0.00241579
0.00224772
0.00359279
0.00224828
0.00359373
0.00241884
0.00247884
0.00241848
0.00247924
0.0177612
0.0228589
0.017762
0.0228645
0.00334319
0.0049645
0.00334236
0.0049744
0.0228216
0.0177546
0.0228483
0.0177701
0.00495659
0.00334253
0.00496088
0.00334407
0.00359297
0.00224853
0.00359568
0.00224804
0.00247837
0.00241797
0.00247867
0.00241827
0.00219479
0.00219477
0.00219423
0.00219421
0.00241542
0.00241542
0.00241563
0.00241563
0.00224815
0.00358925
0.00224765
0.00359194
0.00241794
0.00247813
0.00241824
0.00247842
0.0177475
0.0228285
0.0177628
0.0228551
0.00334182
0.00495705
0.00334335
0.00496132
0.0227774
0.0177291
0.0228081
0.0177476
0.0049493
0.00333871
0.00495373
0.00334115
0.00358848
0.0022476
0.00359132
0.00224811
0.00247758
0.00241766
0.00247792
0.00241758
0.00219479
0.00219477
0.00219427
0.00219425
0.00241525
0.00241525
0.002415
0.002415
0.00224721
0.00358477
0.00224772
0.0035876
0.00241764
0.00247734
0.00241756
0.00247767
0.017722
0.0227844
0.0177405
0.0228151
0.003338
0.00494973
0.00334044
0.00495418
0.0227278
0.0177002
0.022761
0.0177199
0.00494158
0.00333408
0.0049462
0.00333677
0.0035836
0.002248
0.00358666
0.00224752
0.00247668
0.00241687
0.00247707
0.00241714
0.00219483
0.00219481
0.00219427
0.00219425
0.00241435
0.00241435
0.00241463
0.00241463
0.00224762
0.00357992
0.00224713
0.00358295
0.00241685
0.00247644
0.00241712
0.00247682
0.0176933
0.0227349
0.0177129
0.022768
0.0033334
0.00494207
0.00333607
0.00494665
0.0226752
0.017671
0.0227101
0.017691
0.00493378
0.00332932
0.00493849
0.00333209
0.00357856
0.00224705
0.00358171
0.00224757
0.00247567
0.00241612
0.00247611
0.0024164
0.00219482
0.0021948
0.00219429
0.00219427
0.00241364
0.00241364
0.00241386
0.00241386
0.00224667
0.00357491
0.00224719
0.00357804
0.00241609
0.00247543
0.00241638
0.00247587
0.0176642
0.0226825
0.0176841
0.0227173
0.00332866
0.00493432
0.00333142
0.004939
0.0226194
0.0176416
0.0226561
0.0176617
0.00492581
0.00332462
0.00493059
0.0033273
0.00357353
0.00224746
0.00357665
0.00224696
0.00247453
0.00241526
0.00247503
0.00241559
0.00219486
0.00219484
0.00219429
0.00219427
0.00241278
0.00241278
0.0024131
0.00241309
0.00224707
0.00356986
0.00224658
0.003573
0.00241524
0.00247429
0.00241556
0.00247479
0.0176347
0.0226265
0.0176549
0.0226634
0.00332395
0.00492635
0.00332664
0.00493114
0.02256
0.0176117
0.0225988
0.0176323
0.0049177
0.00332023
0.00492259
0.00332274
0.00356842
0.00224651
0.00357162
0.00224702
0.00247324
0.00241423
0.00247382
0.00241465
0.00219485
0.00219483
0.00219432
0.00219429
0.00241177
0.00241177
0.00241216
0.00241215
0.00224613
0.00356473
0.00224664
0.00356794
0.0024142
0.002473
0.00241463
0.00247358
0.0176047
0.022567
0.0176253
0.0226058
0.00331954
0.00491822
0.00332206
0.00492312
0.0224968
0.017581
0.0225378
0.0176021
0.00490935
0.00331578
0.00491438
0.00331838
0.00356334
0.00224691
0.00356653
0.00224643
0.00247179
0.00241304
0.00247245
0.00241353
0.00219489
0.00219487
0.00219431
0.00219429
0.00241058
0.00241058
0.00241106
0.00241106
0.00224653
0.00355963
0.00224604
0.00356283
0.00241302
0.00247154
0.0024135
0.00247221
0.0175739
0.0225035
0.0175951
0.0225446
0.00331508
0.00490984
0.00331769
0.00491489
0.0224292
0.0175496
0.0224727
0.0175714
0.00490072
0.00331111
0.00490594
0.00331385
0.0035582
0.00224599
0.00356147
0.00224648
0.00247013
0.00241164
0.00247089
0.00241224
0.00219488
0.00219486
0.00219434
0.00219432
0.0024092
0.0024092
0.00240977
0.00240977
0.00224561
0.00355446
0.00224609
0.00355774
0.00241161
0.00246989
0.00241222
0.00247065
0.0175423
0.0224356
0.0175641
0.0224793
0.00331039
0.00490117
0.00331314
0.00490642
0.022356
0.0175169
0.0224026
0.0175395
0.00489162
0.00330613
0.0048971
0.00330904
0.00355298
0.00224658
0.00355627
0.00224592
0.00246825
0.00241005
0.00246912
0.00241072
0.00219493
0.00219491
0.00219434
0.00219432
0.0024076
0.0024076
0.00240828
0.00240828
0.0022462
0.00354924
0.00224553
0.00355253
0.00241003
0.00246801
0.0024107
0.00246888
0.0175095
0.0223623
0.0175321
0.022409
0.0033054
0.00489206
0.00330831
0.00489755
0.0222769
0.0174829
0.0223267
0.0175062
0.00488206
0.00330084
0.00488779
0.00330391
0.00354762
0.00224648
0.003551
0.0022461
0.00246612
0.00240821
0.00246712
0.00240901
0.00219496
0.00219494
0.00219438
0.00219436
0.00240576
0.00240576
0.00240655
0.00240655
0.00224609
0.0035439
0.00224572
0.00354726
0.00240818
0.00246588
0.00240898
0.00246687
0.0174756
0.0222833
0.0174989
0.022333
0.00330012
0.0048825
0.00330318
0.00488823
0.022192
0.0174478
0.0222449
0.0174718
0.00487204
0.00329525
0.00487803
0.00329848
0.0035422
0.00224625
0.00354563
0.00224588
0.00246373
0.00240609
0.00246485
0.00240702
0.00219497
0.00219495
0.00219439
0.00219437
0.00240366
0.00240365
0.00240458
0.00240458
0.00224587
0.00353849
0.0022455
0.0035419
0.00240607
0.00246349
0.002407
0.00246461
0.0174405
0.0221983
0.0174645
0.0222512
0.00329453
0.00487248
0.00329776
0.00487846
0.0221006
0.0174115
0.022157
0.0174363
0.00486154
0.00328933
0.0048678
0.00329274
0.00353671
0.00224601
0.00354019
0.00224565
0.00246104
0.00240369
0.00246231
0.00240476
0.00219499
0.00219497
0.00219441
0.00219439
0.00240126
0.00240126
0.00240233
0.00240233
0.00224564
0.00353301
0.00224527
0.00353648
0.00240367
0.0024608
0.00240474
0.00246207
0.0174042
0.0221069
0.017429
0.0221633
0.00328861
0.00486196
0.00329202
0.00486823
0.0220024
0.0173739
0.0220625
0.0173995
0.0048505
0.00328304
0.00485705
0.00328665
0.00353113
0.00224577
0.00353467
0.0022454
0.00245804
0.00240097
0.00245947
0.0024022
0.002195
0.00219498
0.00219442
0.0021944
0.00239855
0.00239855
0.00239978
0.00239977
0.00224539
0.00352745
0.00224503
0.00353098
0.00240095
0.0024578
0.00240218
0.00245923
0.0173667
0.0220087
0.0173923
0.0220687
0.00328233
0.00485092
0.00328593
0.00485747
0.021897
0.017335
0.0219609
0.0173614
0.0048389
0.00327637
0.00484575
0.00328018
0.00352547
0.00224552
0.00352908
0.00224515
0.00245469
0.00239792
0.00245629
0.00239931
0.00219501
0.00219499
0.00219443
0.00219441
0.00239551
0.0023955
0.00239689
0.00239689
0.00224514
0.0035218
0.00224478
0.0035254
0.00239789
0.00245445
0.00239929
0.00245605
0.0173278
0.0219033
0.0173542
0.0219672
0.00327566
0.00483932
0.00327947
0.00484617
0.0217842
0.0172946
0.021852
0.0173219
0.0048267
0.00326927
0.00483387
0.00327331
0.00351972
0.00224526
0.00352339
0.0022449
0.00245097
0.00239449
0.00245275
0.00239607
0.00219502
0.002195
0.00219444
0.00219442
0.00239209
0.00239209
0.00239366
0.00239366
0.00224489
0.00351606
0.00224453
0.00351972
0.00239447
0.00245074
0.00239604
0.00245252
0.0172874
0.0217904
0.0173147
0.0218583
0.00326857
0.00482711
0.0032726
0.00483429
0.0216636
0.0172527
0.0217355
0.0172809
0.00481388
0.00326172
0.00482139
0.00326599
0.00351387
0.00224501
0.0035176
0.00224464
0.00244686
0.00239068
0.00244884
0.00239244
0.00219503
0.00219501
0.00219445
0.00219443
0.00238829
0.00238829
0.00239005
0.00239005
0.00224464
0.00351023
0.00224427
0.00351395
0.00239065
0.00244663
0.00239242
0.0024486
0.0172456
0.0216697
0.0172738
0.0217417
0.00326102
0.00481429
0.00326529
0.0048218
0.0215351
0.0172093
0.0216112
0.0172385
0.00480045
0.0032537
0.00480828
0.00325822
0.00350792
0.00224475
0.00351172
0.00224439
0.00244233
0.00238644
0.00244451
0.00238842
0.00219503
0.00219501
0.00219445
0.00219443
0.00238407
0.00238407
0.00238603
0.00238603
0.00224438
0.00350431
0.00224402
0.00350809
0.00238642
0.0024421
0.0023884
0.00244428
0.0172023
0.0215412
0.0172314
0.0216173
0.00325301
0.00480085
0.00325752
0.00480869
0.0213989
0.0171644
0.021479
0.0171945
0.00478639
0.00324518
0.00479455
0.00324996
0.00350188
0.00224448
0.00350575
0.00224412
0.00243736
0.00238178
0.00243976
0.00238397
0.00219503
0.00219501
0.00219446
0.00219444
0.00237942
0.00237941
0.00238159
0.00238159
0.00224411
0.00349828
0.00224375
0.00350214
0.00238176
0.00243713
0.00238394
0.00243953
0.0171574
0.021405
0.0171874
0.0214851
0.0032445
0.00478679
0.00324927
0.00479495
0.0212551
0.017118
0.0213391
0.017149
0.00477173
0.00323616
0.0047802
0.0032412
0.00349573
0.0022442
0.00349967
0.00224385
0.00243194
0.00237666
0.00243456
0.00237907
0.00219503
0.00219501
0.00219445
0.00219443
0.00237431
0.00237431
0.00237671
0.00237671
0.00224384
0.00349216
0.00224348
0.00349608
0.00237664
0.00243171
0.00237905
0.00243433
0.0171111
0.0212611
0.017142
0.0213451
0.00323548
0.00477213
0.00324052
0.0047806
0.0211041
0.0170703
0.0211918
0.0171021
0.0047565
0.00322662
0.00476527
0.00323193
0.0034895
0.00224392
0.00349349
0.00224357
0.00242604
0.00237107
0.00242889
0.00237371
0.00219502
0.002195
0.00219445
0.00219443
0.00236873
0.00236873
0.00237136
0.00237136
0.00224356
0.00348594
0.00224321
0.00348993
0.00237104
0.00242581
0.00237368
0.00242866
0.0170635
0.02111
0.0170952
0.0211978
0.00322594
0.00475689
0.00323125
0.00476566
0.0209464
0.0170214
0.0210375
0.0170539
0.00474076
0.00321655
0.00474979
0.00322213
0.00348319
0.00224363
0.00348724
0.00224329
0.00241966
0.00236499
0.00242275
0.00236787
0.002195
0.00219498
0.00219443
0.00219441
0.00236267
0.00236267
0.00236554
0.00236553
0.00224327
0.00347966
0.00224293
0.00348369
0.00236497
0.00241943
0.00236785
0.00242252
0.0170146
0.0209523
0.0170471
0.0210434
0.00321588
0.00474114
0.00322145
0.00475017
0.0207828
0.0169715
0.0208768
0.0170046
0.00472456
0.00320597
0.00473381
0.00321181
0.00347682
0.00224333
0.00348091
0.00224299
0.00241279
0.00235843
0.00241612
0.00236154
0.00219497
0.00219495
0.00219441
0.00219439
0.00235613
0.00235613
0.00235923
0.00235923
0.00224297
0.00347331
0.00224263
0.00347739
0.00235841
0.00241256
0.00236152
0.00241589
0.0169648
0.0207887
0.0169978
0.0208827
0.00320531
0.00472493
0.00321115
0.0047342
0.0206142
0.0169208
0.0207107
0.0169544
0.00470799
0.0031949
0.00471743
0.00320099
0.00347042
0.00224302
0.00347454
0.00224269
0.00240543
0.00235139
0.002409
0.00235473
0.00219492
0.00219491
0.00219437
0.00219435
0.00234909
0.00234909
0.00235243
0.00235243
0.00224266
0.00346693
0.00224233
0.00347104
0.00235137
0.00240521
0.00235471
0.00240877
0.0169142
0.02062
0.0169477
0.0207166
0.00319424
0.00470836
0.00320033
0.0047178
0.0204418
0.0168696
0.0205402
0.0169035
0.00469115
0.00318334
0.00470072
0.00318967
0.00346401
0.00224269
0.00346814
0.00224237
0.00239759
0.00234385
0.00240139
0.00234743
0.00219487
0.00219485
0.00219432
0.0021943
0.00234158
0.00234158
0.00234514
0.00234514
0.00224234
0.00346055
0.00224201
0.00346467
0.00234383
0.00239737
0.00234741
0.00240116
0.0168631
0.0204476
0.0168969
0.020546
0.00318269
0.00469151
0.00318902
0.00470109
0.0202668
0.0168183
0.0203664
0.0168523
0.00467415
0.00317134
0.00468379
0.0031779
0.00345762
0.00224235
0.00346175
0.00224203
0.00238928
0.00233585
0.0023933
0.00233965
0.00219479
0.00219477
0.00219425
0.00219423
0.00233359
0.00233358
0.00233738
0.00233738
0.002242
0.00345419
0.00224168
0.0034583
0.00233583
0.00238905
0.00233963
0.00239308
0.0168118
0.0202725
0.0168457
0.0203721
0.0031707
0.0046745
0.00317725
0.00468415
0.0200906
0.0167671
0.0201907
0.016801
0.00465711
0.00315893
0.00466677
0.00316569
0.00345128
0.00224199
0.0034554
0.00224169
0.00238051
0.00232739
0.00238475
0.00233141
0.00219469
0.00219467
0.00219416
0.00219415
0.00232514
0.00232514
0.00232915
0.00232915
0.00224164
0.00344787
0.00224133
0.00345197
0.00232737
0.00238029
0.00233139
0.00238453
0.0167606
0.0200962
0.0167945
0.0201963
0.0031583
0.00465746
0.00316505
0.00466712
0.0199147
0.0167164
0.0200145
0.01675
0.00464016
0.00314616
0.00464977
0.00315309
0.00344503
0.00224161
0.00344911
0.00224132
0.00237131
0.00231849
0.00237576
0.00232272
0.00219456
0.00219454
0.00219405
0.00219403
0.00231625
0.00231625
0.00232047
0.00232047
0.00224126
0.00344164
0.00224097
0.00344571
0.00231847
0.00237109
0.0023227
0.00237554
0.01671
0.0199203
0.0167436
0.0200201
0.00314553
0.00464051
0.00315246
0.00465011
0.0197406
0.0166666
0.0198394
0.0166997
0.00462345
0.00313308
0.00463292
0.00314015
0.00343889
0.0022412
0.00344292
0.00224092
0.00236171
0.00230918
0.00236635
0.0023136
0.00219439
0.00219437
0.0021939
0.00219388
0.00230696
0.00230696
0.00231137
0.00231137
0.00224085
0.00343554
0.00224057
0.00343955
0.00230916
0.0023615
0.00231358
0.00236613
0.0166603
0.0197462
0.0166934
0.0198449
0.00313246
0.00462378
0.00313953
0.00463326
0.01957
0.016618
0.0196669
0.0166505
0.00460709
0.00311974
0.00461638
0.00312694
0.00343292
0.00224076
0.00343687
0.0022405
0.00235175
0.0022995
0.00235655
0.0023041
0.00219418
0.00219416
0.00219371
0.0021937
0.0022973
0.0022973
0.00230188
0.00230188
0.00224042
0.00342959
0.00224016
0.00343353
0.00229948
0.00235153
0.00230408
0.00235633
0.0166118
0.0195755
0.0166442
0.0196724
0.00311913
0.00460742
0.00312632
0.00461671
0.0194043
0.0165711
0.0194985
0.0166027
0.00459123
0.00310621
0.00460026
0.00311349
0.00342711
0.0022403
0.00343101
0.00224005
0.00234146
0.00228949
0.00234641
0.00229423
0.00219394
0.00219392
0.00219349
0.00219347
0.0022873
0.00228729
0.00229203
0.00229203
0.00223996
0.0034238
0.00223971
0.00342769
0.00228947
0.00234124
0.00229421
0.00234619
0.016565
0.0194097
0.0165965
0.019504
0.00310561
0.00459156
0.00311288
0.00460058
0.019245
0.0165262
0.0193359
0.0165568
0.004576
0.00309256
0.0045847
0.00309989
0.00342155
0.0022398
0.00342532
0.00223957
0.00233088
0.00227918
0.00233596
0.00228406
0.00219365
0.00219363
0.00219323
0.00219321
0.002277
0.002277
0.00228186
0.00228186
0.00223946
0.00341827
0.00223923
0.00342202
0.00227916
0.00233067
0.00228404
0.00233574
0.0165201
0.0192504
0.0165506
0.0193413
0.00309195
0.00457631
0.00309928
0.00458502
0.0190936
0.0164836
0.0191804
0.016513
0.00456149
0.00307883
0.00456982
0.00308619
0.00341627
0.00223928
0.00341989
0.00223907
0.00232006
0.00226862
0.00232525
0.00227361
0.00219332
0.00219331
0.00219292
0.00219291
0.00226645
0.00226645
0.00227143
0.00227143
0.00223894
0.003413
0.00223873
0.00341661
0.0022686
0.00231985
0.00227359
0.00232503
0.0164776
0.0190989
0.0165069
0.0191858
0.00307823
0.0045618
0.00308559
0.00457013
0.0189512
0.0164436
0.0190334
0.0164717
0.00454783
0.0030651
0.00455573
0.00307246
0.00341126
0.00223873
0.00341474
0.00223854
0.00230906
0.00225786
0.00231432
0.00226293
0.00219295
0.00219293
0.00219258
0.00219256
0.0022557
0.0022557
0.00226076
0.00226076
0.0022384
0.00340802
0.0022382
0.00341149
0.00225784
0.00230885
0.00226291
0.00231411
0.0164377
0.0189565
0.0164657
0.0190387
0.00306451
0.00454813
0.00307186
0.00455604
0.0188188
0.0164064
0.018896
0.0164332
0.00453508
0.00305143
0.00454252
0.00305875
0.00340655
0.00223816
0.00340988
0.00223798
0.00229791
0.00224694
0.00230322
0.00225207
0.00219254
0.00219252
0.00219219
0.00219217
0.00224479
0.00224479
0.00224991
0.00224991
0.00223782
0.00340332
0.00223764
0.00340664
0.00224692
0.0022977
0.00225205
0.00230301
0.0164005
0.0188241
0.0164273
0.0189013
0.00305084
0.00453538
0.00305816
0.00454282
0.0186991
0.0163705
0.0187688
0.0163974
0.00452347
0.00303785
0.00453026
0.00304514
0.00340212
0.00223755
0.00340533
0.00223739
0.00228666
0.00223591
0.00229201
0.00224108
0.00219208
0.00219207
0.00219176
0.00219174
0.00223377
0.00223377
0.00223893
0.00223893
0.00223722
0.00339891
0.00223706
0.00340211
0.00223589
0.00228645
0.00224106
0.0022918
0.0163647
0.0187043
0.0163915
0.018774
0.00303727
0.00452376
0.00304456
0.00453056
0.0185876
0.0161776
0.0186508
0.0163436
0.00450886
0.00301676
0.00451906
0.00303108
0.00338393
0.00223661
0.00339925
0.00223673
0.00227477
0.0022245
0.00228072
0.00223002
0.00219165
0.00219164
0.0021913
0.00219128
0.00222238
0.00222238
0.00222789
0.00222789
0.00223628
0.0033808
0.0022364
0.00339606
0.00222448
0.00227456
0.00223
0.00228051
0.0161718
0.0185926
0.0163378
0.018656
0.00301618
0.00450914
0.0030305
0.00451935
0.021579
0.0169816
0.013051
0.0109909
0.0214827
0.0168615
0.0131142
0.010851
0.0035505
0.00236577
0.00331611
0.00284965
0.00353896
0.00236591
0.00330876
0.00285165
0.00231938
0.00231936
0.00283416
0.00283416
0.00231987
0.00231986
0.0028364
0.00283639
0.00236549
0.0035478
0.00284959
0.00331539
0.00236563
0.00353632
0.0028516
0.00330808
0.0169757
0.0215842
0.0109898
0.013052
0.0168558
0.0214876
0.0108499
0.0131152
0.0247739
0.019145
0.0242093
0.0187704
0.0246136
0.019024
0.0240727
0.0186681
0.00376075
0.00224752
0.00372062
0.0022643
0.00374762
0.00224729
0.00370965
0.00226415
0.00218707
0.00218705
0.00220634
0.00220632
0.00218724
0.00218722
0.00220652
0.0022065
0.00224707
0.00375617
0.00226388
0.00371642
0.00224684
0.00374314
0.00226373
0.00370553
0.0191358
0.0247819
0.018762
0.0242166
0.0190151
0.0246215
0.0186599
0.0240798
0.024893
0.0192226
0.0248965
0.0192266
0.0246574
0.0190618
0.0246684
0.019057
0.00376737
0.00224455
0.00376879
0.0022452
0.00374984
0.00224417
0.00375136
0.00224483
0.00218474
0.00218471
0.00218429
0.00218426
0.00218491
0.00218489
0.00218446
0.00218443
0.00224408
0.00376268
0.00224473
0.00376412
0.00224371
0.00374522
0.00224437
0.00374681
0.019213
0.024901
0.0192172
0.0249046
0.0190522
0.0246652
0.0190479
0.0246764
0.0248707
0.0192069
0.024898
0.0192251
0.0246718
0.0190738
0.0246879
0.0190857
0.00376309
0.00224487
0.00376645
0.00224446
0.00374847
0.00224459
0.00375095
0.00224415
0.00218478
0.00218476
0.00218421
0.00218419
0.00218496
0.00218493
0.00218439
0.00218437
0.00224441
0.00375845
0.00224399
0.00376178
0.00224414
0.00374394
0.00224369
0.00374639
0.0191976
0.0248792
0.0192157
0.0249063
0.0190649
0.0246801
0.0190766
0.0246961
0.0248246
0.0191785
0.0248592
0.0191999
0.0246302
0.0190489
0.0246636
0.0190694
0.00375739
0.00224389
0.00376106
0.00224443
0.00374341
0.00224363
0.00374695
0.00224416
0.00218476
0.00218474
0.00218423
0.00218421
0.00218494
0.00218491
0.00218441
0.00218439
0.00224342
0.00375271
0.00224396
0.00375638
0.00224317
0.00373885
0.00224371
0.00374237
0.0191691
0.0248328
0.0191905
0.0248675
0.0190399
0.0246383
0.0190603
0.0246718
0.0247698
0.0191463
0.0248079
0.019169
0.0245749
0.0190167
0.0246133
0.0190395
0.00375145
0.00224421
0.00375517
0.00224379
0.00373746
0.00224394
0.00374122
0.00224353
0.00218478
0.00218476
0.00218422
0.00218419
0.00218496
0.00218494
0.0021844
0.00218437
0.00224375
0.00374685
0.00224333
0.00375051
0.00224349
0.00373285
0.00224307
0.00373661
0.0191372
0.0247783
0.0191596
0.0248162
0.0190074
0.0245828
0.0190303
0.0246212
0.0247122
0.0191141
0.0247517
0.0191368
0.0245157
0.0189834
0.0245559
0.0190066
0.00374575
0.00224325
0.00374939
0.00224377
0.00373149
0.00224297
0.00373527
0.0022435
0.00218477
0.00218474
0.00218423
0.00218421
0.00218495
0.00218492
0.00218441
0.00218439
0.00224278
0.0037411
0.00224332
0.00374477
0.00224252
0.00372694
0.00224305
0.00373069
0.0191047
0.0247204
0.0191276
0.0247602
0.0189743
0.0245238
0.0189975
0.0245639
0.024651
0.0190815
0.0246927
0.0191046
0.0244529
0.0189493
0.0244951
0.018973
0.00374008
0.00224359
0.00374373
0.00224316
0.00372559
0.00224331
0.00372932
0.00224288
0.00218479
0.00218477
0.00218422
0.00218419
0.00218498
0.00218495
0.0021844
0.00218438
0.00224314
0.00373547
0.0022427
0.00373909
0.00224285
0.00372106
0.00224242
0.00372478
0.0190723
0.0246593
0.0190953
0.024701
0.0189403
0.0244611
0.018964
0.0245034
0.0245869
0.0190493
0.0246304
0.0190723
0.0243873
0.0189153
0.0244313
0.018939
0.00373456
0.00224264
0.00373817
0.00224315
0.00371982
0.00224235
0.00372351
0.00224287
0.00218478
0.00218475
0.00218423
0.00218421
0.00218496
0.00218494
0.00218442
0.00218439
0.00224219
0.00372993
0.00224271
0.00373354
0.0022419
0.00371529
0.00224242
0.00371898
0.01904
0.024595
0.0190631
0.0246387
0.0189063
0.0243954
0.0189301
0.0244394
0.0245188
0.0190167
0.0245648
0.0190402
0.024318
0.0188812
0.0243642
0.0189053
0.00372906
0.00224298
0.00373269
0.00224256
0.00371416
0.00224271
0.00371782
0.00224227
0.0021848
0.00218478
0.00218422
0.0021842
0.00218499
0.00218497
0.00218441
0.00218438
0.00224253
0.00372441
0.0022421
0.00372803
0.00224225
0.0037096
0.00224181
0.00371328
0.0190073
0.0245268
0.0190308
0.0245728
0.0188721
0.0243258
0.0188962
0.0243722
0.0244461
0.0189836
0.0244947
0.0190075
0.024244
0.0188467
0.0242929
0.0188711
0.00372347
0.00224206
0.00372716
0.00224255
0.00370848
0.00224177
0.00371219
0.00224227
0.00218479
0.00218477
0.00218424
0.00218421
0.00218498
0.00218496
0.00218443
0.0021844
0.00224161
0.00371885
0.0022421
0.00372252
0.00224132
0.00370395
0.00224181
0.00370764
0.0189743
0.0244542
0.0189981
0.0245027
0.0188376
0.0242518
0.018862
0.0243006
0.0243685
0.0189499
0.0244199
0.0189742
0.0241647
0.0188114
0.0242166
0.0188364
0.00371792
0.00224239
0.00372161
0.00224198
0.00370283
0.00224212
0.00370654
0.00224169
0.00218482
0.00218479
0.00218423
0.00218421
0.00218501
0.00218499
0.00218442
0.0021844
0.00224194
0.00371331
0.00224152
0.00371699
0.00224167
0.00369832
0.00224124
0.00370202
0.0189407
0.0243766
0.018965
0.024428
0.0188024
0.0241725
0.0188274
0.0242244
0.0242853
0.0189155
0.0243398
0.0189403
0.0240797
0.0187753
0.0241347
0.0188009
0.00371231
0.0022415
0.00371605
0.00224197
0.00369713
0.00224125
0.0037009
0.00224169
0.00218481
0.00218479
0.00218425
0.00218423
0.00218501
0.00218499
0.00218445
0.00218442
0.00224105
0.00370772
0.00224152
0.00371145
0.0022408
0.00369264
0.00224124
0.00369639
0.0189063
0.0242934
0.0189311
0.0243479
0.0187664
0.0240875
0.0187919
0.0241426
0.0241964
0.0188805
0.024254
0.0189058
0.0239887
0.0187386
0.024047
0.0187646
0.00370677
0.00224185
0.00371048
0.00224142
0.00369151
0.00224179
0.00369523
0.00224116
0.00218484
0.00218482
0.00218425
0.00218423
0.00218506
0.00218504
0.00218445
0.00218443
0.0022414
0.00370219
0.00224097
0.0037059
0.00224135
0.00368703
0.00224072
0.00369074
0.0188714
0.0242044
0.0188966
0.0242621
0.0187297
0.0239965
0.0187557
0.0240548
0.0241014
0.018845
0.0241624
0.0188707
0.0238915
0.0187012
0.0239532
0.0187277
0.00370128
0.00224194
0.00370497
0.00224139
0.00368589
0.00224175
0.00368962
0.00224131
0.00218489
0.00218487
0.00218427
0.00218425
0.0021851
0.00218508
0.00218449
0.00218447
0.00224149
0.00369672
0.00224094
0.00370039
0.0022413
0.00368142
0.00224087
0.00368514
0.0188359
0.0241094
0.0188616
0.0241705
0.0186923
0.0238992
0.0187188
0.023961
0.024
0.0188089
0.0240645
0.0188351
0.0237875
0.0186631
0.0238529
0.0186901
0.00369581
0.00224184
0.00369951
0.00224143
0.00368028
0.00224156
0.00368403
0.00224117
0.00218492
0.0021849
0.00218432
0.00218429
0.00218513
0.00218511
0.00218453
0.0021845
0.00224139
0.00369126
0.00224098
0.00369495
0.00224111
0.00367583
0.00224073
0.00367957
0.0187999
0.0240079
0.018826
0.0240725
0.0186543
0.0237953
0.0186813
0.0238607
0.0238916
0.0187722
0.0239599
0.0187988
0.0236765
0.0186243
0.0237457
0.0186518
0.00369035
0.00224163
0.00369406
0.00224125
0.00367469
0.00224133
0.00367845
0.00224096
0.00218495
0.00218493
0.00218434
0.00218432
0.00218516
0.00218514
0.00218456
0.00218453
0.00224118
0.00368583
0.0022408
0.00368952
0.00224089
0.00367026
0.00224051
0.00367401
0.0187632
0.0238996
0.0187898
0.0239679
0.0186155
0.0236842
0.018643
0.0237535
0.0237759
0.0187348
0.0238481
0.0187619
0.0235581
0.0185846
0.0236313
0.0186127
0.00368493
0.00224141
0.00368864
0.00224103
0.00366911
0.00224112
0.00367288
0.00224073
0.00218498
0.00218496
0.00218437
0.00218434
0.0021852
0.00218518
0.00218459
0.00218456
0.00224097
0.00368042
0.00224058
0.00368412
0.00224068
0.00366469
0.00224029
0.00366845
0.0187258
0.0237838
0.0187529
0.0238561
0.0185759
0.0235658
0.018604
0.023639
0.0236527
0.0186965
0.0237289
0.0187242
0.023432
0.018544
0.0235093
0.0185727
0.00367953
0.00224121
0.00368325
0.00224082
0.00366354
0.00224091
0.00366733
0.00224052
0.00218502
0.00218499
0.0021844
0.00218438
0.00218524
0.00218522
0.00218463
0.0021846
0.00224077
0.00367503
0.00224038
0.00367874
0.00224047
0.00365914
0.00224008
0.00366291
0.0186876
0.0236606
0.0187152
0.0237368
0.0185354
0.0234396
0.018564
0.0235169
0.0235219
0.0186576
0.0236022
0.0186857
0.0232981
0.0185026
0.0233795
0.0185318
0.00367417
0.00224102
0.00367789
0.00224063
0.00365797
0.00224072
0.00366178
0.00224032
0.00218506
0.00218504
0.00218444
0.00218442
0.00218529
0.00218527
0.00218467
0.00218465
0.00224058
0.0036697
0.00224018
0.00367339
0.00224028
0.00365359
0.00223988
0.00365738
0.0186487
0.0235298
0.0186768
0.02361
0.018494
0.0233057
0.0185232
0.0233871
0.0233835
0.0186179
0.0234678
0.0186465
0.0231565
0.0184603
0.0232419
0.0184901
0.00366885
0.00224085
0.00367257
0.00224044
0.00365242
0.00224054
0.00365624
0.00224013
0.00218511
0.00218509
0.00218449
0.00218447
0.00218535
0.00218533
0.00218473
0.0021847
0.00224041
0.0036644
0.00224
0.00366809
0.0022401
0.00364806
0.0022397
0.00365186
0.0186091
0.0233913
0.0186377
0.0234756
0.0184517
0.023164
0.0184815
0.0232495
0.0232376
0.0185775
0.0233258
0.0186066
0.0230072
0.0184171
0.0230966
0.0184475
0.00366358
0.00224068
0.00366728
0.00224027
0.00364689
0.00224037
0.00365071
0.00223996
0.00218518
0.00218515
0.00218455
0.00218452
0.00218543
0.0021854
0.00218479
0.00218477
0.00224024
0.00365914
0.00223983
0.00366282
0.00223994
0.00364255
0.00223953
0.00364635
0.0185688
0.0232454
0.0185978
0.0233336
0.0184086
0.0230147
0.018439
0.0231041
0.0230853
0.0185372
0.0231765
0.0185662
0.0228506
0.0183732
0.0229438
0.0184041
0.00365836
0.00224053
0.00366205
0.00224012
0.00364138
0.00224022
0.0036452
0.0022398
0.00218526
0.00218523
0.00218462
0.0021846
0.00218551
0.00218549
0.00218487
0.00218485
0.00224009
0.00365394
0.00223967
0.00365761
0.00223979
0.00363706
0.00223937
0.00364086
0.0185285
0.023093
0.0185575
0.0231842
0.0183648
0.0228581
0.0183956
0.0229513
0.022926
0.0184956
0.0230212
0.0185256
0.0226873
0.0183287
0.0227839
0.01836
0.00365316
0.00224041
0.00365686
0.00223998
0.00363589
0.00224009
0.00363971
0.00223967
0.00218535
0.00218533
0.00218471
0.00218468
0.00218561
0.00218559
0.00218497
0.00218494
0.00223997
0.00364876
0.00223954
0.00365244
0.00223966
0.0036316
0.00223924
0.0036354
0.018487
0.0229336
0.0185169
0.0230289
0.0183203
0.0226947
0.0183516
0.0227914
0.0227595
0.0184532
0.0228583
0.0184836
0.0225178
0.0182835
0.0226176
0.0183152
0.00364799
0.0022403
0.00365168
0.00223986
0.00363046
0.00223998
0.00363426
0.00223955
0.00218546
0.00218544
0.00218481
0.00218479
0.00218573
0.00218571
0.00218508
0.00218505
0.00223987
0.00364362
0.00223942
0.00364729
0.00223956
0.00362619
0.00223912
0.00362998
0.0184446
0.0227671
0.0184751
0.0228659
0.0182752
0.0225251
0.0183069
0.0226249
0.0225875
0.0184104
0.0226891
0.0184411
0.0223431
0.018238
0.0224455
0.01827
0.00364289
0.00224022
0.00364656
0.00223977
0.00362508
0.0022399
0.00362887
0.00223945
0.00218559
0.00218557
0.00218493
0.00218491
0.00218586
0.00218584
0.0021852
0.00218518
0.00223979
0.00363854
0.00223933
0.00364219
0.00223947
0.00362083
0.00223902
0.0036246
0.0184019
0.022595
0.0184326
0.0226967
0.0182298
0.0223504
0.0182617
0.0224528
0.0224113
0.0183674
0.0225149
0.0183983
0.0221644
0.0181924
0.0222687
0.0182245
0.00363787
0.00224016
0.00364151
0.0022397
0.00361978
0.00223983
0.00362354
0.00223937
0.00218574
0.00218572
0.00218507
0.00218505
0.00218602
0.00218599
0.00218535
0.00218532
0.00223973
0.00363354
0.00223927
0.00363716
0.00223941
0.00361556
0.00223895
0.0036193
0.018359
0.0224188
0.0183899
0.0225224
0.0181843
0.0221716
0.0182163
0.022276
0.0222322
0.0183244
0.0223373
0.0183554
0.0219828
0.0181468
0.0220885
0.018179
0.00363293
0.00224015
0.00363655
0.00223966
0.00361457
0.00223978
0.0036183
0.00223932
0.0021859
0.00218588
0.00218522
0.00218521
0.00218618
0.00218616
0.00218551
0.00218548
0.00223969
0.00362862
0.00223922
0.00363222
0.00223936
0.00361037
0.0022389
0.00361408
0.0183161
0.0222396
0.0183471
0.0223447
0.0181388
0.0219899
0.0181709
0.0220957
0.0220514
0.0182817
0.0221572
0.0183127
0.0217998
0.0181016
0.0219061
0.0181336
0.0036281
0.00224012
0.00363168
0.00223965
0.00360947
0.00223976
0.00361316
0.00223929
0.00218608
0.00218606
0.0021854
0.00218538
0.00218636
0.00218634
0.00218568
0.00218566
0.00223968
0.00362382
0.0022392
0.00362738
0.00223934
0.0036053
0.00223887
0.00360897
0.0182735
0.0220588
0.0183044
0.0221646
0.0180937
0.0218069
0.0181256
0.0219133
0.0218704
0.0182395
0.0219763
0.0182703
0.0216169
0.0180571
0.0217231
0.0180888
0.00362337
0.00224013
0.00362694
0.00223964
0.00360448
0.00223975
0.00360815
0.00223928
0.00218628
0.00218626
0.00218559
0.00218557
0.00218656
0.00218653
0.00218587
0.00218585
0.0022397
0.00361911
0.0022392
0.00362266
0.00223934
0.00360033
0.00223886
0.00360398
0.0182314
0.0218777
0.0182621
0.0219836
0.0180492
0.0216239
0.0180809
0.0217301
0.0216908
0.018198
0.0217958
0.0182285
0.0214356
0.0180134
0.0215409
0.0180448