/*--------------------------------*- C++ -*----------------------------------*\
  =========                 |
  \\      /  F ield         | OpenFOAM: The Open Source CFD Toolbox
   \\    /   O peration     | Website:  https://openfoam.org
    \\  /    A nd           | Version:  9
     \\/     M anipulation  |
\*---------------------------------------------------------------------------*/
FoamFile
{
    format      ascii;
    class       surfaceScalarField;
    location    "0.35";
    object      phi;
}
// * * * * * * * * * * * * * * * * * * * * * * * * * * * * * * * * * * * * * //

dimensions      [0 3 -1 0 0 0 0];

internalField   nonuniform List<scalar> 
104044
(
1.291e-07
-6.41453e-05
5.4916e-07
6.34532e-05
1.38817e-08
-5.7957e-05
-1.14388e-06
-4.93415e-08
5.91181e-05
1.61223e-07
7.39929e-08
-1.46764e-08
1.33153e-07
-1.49493e-06
-2.95829e-08
-6.66088e-08
8.33498e-08
-5.95076e-05
5.99734e-05
-6.02263e-05
-3.52262e-08
5.92009e-05
6.92043e-08
-3.43868e-08
-2.71683e-09
-6.12331e-05
-2.61618e-07
6.13725e-05
7.5632e-08
-6.12858e-05
-1.66423e-07
-2.06084e-10
6.14214e-05
2.83143e-08
-1.17797e-09
-8.37551e-07
6.61304e-08
-7.9113e-07
-5.79459e-11
5.94004e-08
-2.44114e-09
-6.02588e-05
5.99644e-05
-5.99419e-05
-2.24928e-10
5.97733e-05
-1.68536e-09
-1.01214e-10
-5.19357e-13
-6.12542e-05
-1.61919e-07
6.13894e-05
2.65003e-08
-6.12542e-05
-1.61919e-07
2.04805e-10
6.13894e-05
2.65002e-08
-1.75832e-13
-7.88886e-07
5.88944e-08
-7.88886e-07
5.75351e-11
5.88942e-08
-5.2667e-13
-5.98924e-05
5.97302e-05
-5.98924e-05
2.23522e-10
5.97302e-05
-1.77051e-13
1.00727e-10
2.71451e-09
-6.12857e-05
-1.66422e-07
6.14213e-05
2.83131e-08
-6.1233e-05
-2.61601e-07
4.93244e-08
6.13724e-05
7.56128e-08
1.17741e-09
-7.91129e-07
5.93988e-08
-8.37542e-07
2.95781e-08
6.61182e-08
2.43882e-09
-5.99419e-05
5.97732e-05
-6.02587e-05
3.52323e-08
5.99643e-05
1.68453e-09
3.43883e-08
-1.29098e-07
-5.79572e-05
-1.14392e-06
5.91183e-05
1.61254e-07
-6.41454e-05
5.49167e-07
6.34533e-05
1.38933e-08
-7.39931e-08
-1.49488e-06
-6.66427e-08
-1.46548e-08
1.33141e-07
-8.33519e-08
-6.02266e-05
5.92012e-05
-5.95078e-05
5.99736e-05
-6.92042e-08
9.31955e-08
-6.28333e-05
2.52966e-07
6.24357e-05
5.15163e-08
-5.97313e-05
-1.4552e-07
-2.71367e-08
6.00623e-05
-6.51605e-08
1.11582e-07
4.89592e-07
1.86722e-08
-5.30792e-07
-3.78843e-08
6.70719e-08
4.67906e-08
-6.04011e-05
6.06073e-05
-5.87567e-05
-1.63213e-08
5.86743e-05
6.18757e-08
-2.47091e-08
-4.63378e-09
-6.13505e-05
-2.99301e-08
6.12889e-05
6.89987e-08
-6.14018e-05
2.45708e-08
-5.42546e-10
6.13496e-05
2.34827e-08
-3.72355e-09
-7.52788e-08
6.31001e-08
-3.91544e-10
-3.58306e-10
1.66318e-08
-3.52472e-09
-5.98676e-05
5.98249e-05
-5.977e-05
-5.59269e-10
5.97916e-05
-3.20632e-09
-3.84079e-10
-9.35789e-13
-6.13705e-05
2.65361e-08
6.13209e-05
2.24722e-08
-6.13705e-05
2.65358e-08
5.40072e-10
6.13209e-05
2.24723e-08
-7.48502e-13
2.73092e-09
1.58427e-08
2.73079e-09
3.56394e-10
1.58427e-08
-9.10289e-13
-5.97326e-05
5.97586e-05
-5.97326e-05
5.56628e-10
5.97586e-05
-7.60805e-13
3.82002e-10
4.6288e-09
-6.14017e-05
2.45696e-08
6.13496e-05
2.34817e-08
-6.13504e-05
-2.98988e-08
2.71118e-08
6.12889e-05
6.89672e-08
3.71977e-09
-3.91873e-10
1.66309e-08
-7.52539e-08
3.78598e-08
6.30742e-08
3.52298e-09
-5.977e-05
5.97916e-05
-5.98675e-05
1.63349e-08
5.98248e-05
3.20305e-09
2.47188e-08
-9.31952e-08
-5.97315e-05
-1.45613e-07
6.00625e-05
-6.51332e-08
-6.28333e-05
2.52547e-07
6.24359e-05
5.1578e-08
-1.1158e-07
-5.30881e-07
6.71224e-08
4.89678e-07
1.8735e-08
-4.67972e-08
-5.8757e-05
5.86745e-05
-6.04014e-05
6.06071e-05
-6.18808e-08
6.20263e-08
-6.21958e-05
-4.86299e-08
6.20288e-05
1.53625e-07
-6.02511e-05
6.24626e-08
-1.04296e-08
6.03718e-05
-1.10784e-07
7.57687e-08
4.99156e-08
1.14206e-07
4.29996e-09
-1.78051e-08
-9.9465e-08
1.98171e-08
-6.06246e-05
6.05562e-05
-5.87196e-05
-1.48066e-09
5.88034e-05
3.25773e-08
-8.39187e-09
-5.37256e-09
-6.12198e-05
-5.29087e-08
6.11591e-05
1.08521e-07
-6.12988e-05
-1.02337e-08
-8.58901e-10
6.12504e-05
5.40844e-08
-4.31592e-09
-3.45533e-08
9.0154e-08
6.30399e-09
-7.10767e-10
4.08984e-08
-6.61656e-09
-5.97862e-05
5.97384e-05
-5.97944e-05
-8.62477e-10
5.97784e-05
-4.27874e-09
-7.36971e-10
-1.61292e-12
-6.12731e-05
-9.65753e-09
6.1229e-05
5.28629e-08
-6.12731e-05
-9.6589e-09
8.59256e-10
6.1229e-05
5.28627e-08
-1.00455e-12
7.57955e-09
3.95507e-08
7.57911e-09
7.08181e-10
3.95508e-08
-5.96263e-12
-5.97654e-05
5.97549e-05
-5.97654e-05
8.45913e-10
5.97549e-05
-1.02812e-12
7.34364e-10
5.39615e-09
-6.12988e-05
-1.02375e-08
6.12504e-05
5.40772e-08
-6.12198e-05
-5.28607e-08
1.04088e-08
6.11592e-05
1.08491e-07
4.31071e-09
6.29844e-09
4.08975e-08
-3.45117e-08
1.77827e-08
9.01183e-08
6.60479e-09
-5.97944e-05
5.97784e-05
-5.97862e-05
1.4983e-09
5.97384e-05
4.25918e-09
8.40756e-09
-6.20268e-08
-6.02513e-05
6.23812e-08
6.0372e-05
-1.10701e-07
-6.2196e-05
-4.86003e-08
6.20289e-05
1.53623e-07
-7.57686e-08
4.25681e-09
-9.94447e-08
5.00075e-08
1.14212e-07
-1.98274e-08
-5.87197e-05
5.88034e-05
-6.06245e-05
6.05561e-05
-3.25855e-08
3.833e-08
-6.18919e-05
-1.17501e-07
6.17669e-05
2.04133e-07
-6.04565e-05
8.20198e-08
9.67259e-10
6.05173e-05
-1.05366e-07
4.88106e-08
-9.42689e-08
1.82309e-07
7.89537e-08
-4.14658e-09
-1.10706e-07
-2.37326e-09
-6.0454e-05
6.03389e-05
-5.88844e-05
1.16488e-08
5.89524e-05
7.93166e-09
5.83784e-09
-7.22707e-09
-6.11062e-05
-7.42124e-08
6.10522e-05
1.36348e-07
-6.12046e-05
-3.77958e-08
-1.02381e-09
6.11561e-05
8.00857e-08
-7.37073e-09
-6.61654e-08
1.22332e-07
-2.70522e-08
-9.85455e-10
6.64887e-08
-5.4349e-09
-5.96843e-05
5.96272e-05
-5.97461e-05
-9.92677e-10
5.97038e-05
-6.22358e-09
-9.06513e-10
2.84746e-12
-6.11883e-05
-3.6422e-08
6.11446e-05
7.91429e-08
-6.11883e-05
-3.64238e-08
1.04114e-09
6.11446e-05
7.91388e-08
-1.43206e-11
-2.60385e-08
6.57533e-08
-2.60327e-08
9.41073e-10
6.57564e-08
-3.50995e-12
-5.9728e-05
5.96905e-05
-5.97279e-05
9.82194e-10
5.96905e-05
4.79522e-12
9.26591e-10
7.22098e-09
-6.12046e-05
-3.77909e-08
6.11561e-05
8.00891e-08
-6.11062e-05
-7.41641e-08
-9.81546e-10
6.10523e-05
1.36303e-07
7.34826e-09
-2.70633e-08
6.648e-08
-6.61181e-08
4.12403e-09
1.22286e-07
5.4286e-09
-5.9746e-05
5.97038e-05
-5.96843e-05
-1.16197e-08
5.96272e-05
6.22408e-09
-5.80644e-09
-3.83328e-08
-6.04567e-05
8.19988e-08
6.05174e-05
-1.05332e-07
-6.18921e-05
-1.17434e-07
6.17671e-05
2.04105e-07
-4.88137e-08
7.89576e-08
-1.107e-07
-9.41614e-08
1.82192e-07
2.36365e-09
-5.88845e-05
5.89525e-05
-6.0454e-05
6.03389e-05
-7.94087e-09
2.067e-08
-6.16498e-05
-1.40453e-07
6.15338e-05
2.35807e-07
-6.05569e-05
7.25768e-08
1.01877e-08
6.05777e-05
-8.28613e-08
2.85782e-08
-1.31195e-07
2.19754e-07
7.91926e-08
4.5343e-09
-9.47809e-08
-1.92257e-08
-6.0219e-05
6.00977e-05
-5.90045e-05
1.9261e-08
5.90386e-05
-1.12972e-08
1.57542e-08
-5.69186e-09
-6.09959e-05
-8.58838e-08
6.0937e-05
1.60738e-07
-6.11037e-05
-5.33786e-08
-1.11778e-09
6.10452e-05
1.07312e-07
-6.51321e-09
-7.94269e-08
1.46773e-07
-4.55305e-08
-1.07457e-09
9.25133e-08
-4.60179e-09
-5.95683e-05
5.95063e-05
-5.96545e-05
-1.09006e-09
5.95976e-05
-4.80668e-09
-1.03423e-09
-1.79824e-12
-6.10964e-05
-5.16498e-08
6.10418e-05
1.05114e-07
-6.10964e-05
-5.165e-08
1.11441e-09
6.10418e-05
1.05114e-07
-3.73905e-12
-4.39237e-08
9.10019e-08
-4.39234e-08
1.06265e-09
9.10047e-08
-1.81756e-12
-5.96456e-05
5.95928e-05
-5.96456e-05
1.08592e-09
5.95928e-05
-1.91307e-12
1.03079e-09
5.6798e-09
-6.11037e-05
-5.33752e-08
6.10452e-05
1.07312e-07
-6.0996e-05
-8.58357e-08
-1.02044e-08
6.0937e-05
1.60694e-07
6.50076e-09
-4.5528e-08
9.25086e-08
-7.93841e-08
-4.54303e-09
1.46729e-07
4.59555e-09
-5.96545e-05
5.95976e-05
-5.95683e-05
-1.92282e-08
5.95063e-05
4.80018e-09
-1.57235e-08
-2.0674e-08
-6.0557e-05
7.25611e-08
6.05777e-05
-8.28086e-08
-6.165e-05
-1.40373e-07
6.15339e-05
2.35754e-07
-2.85819e-08
7.91119e-08
-9.47143e-08
-1.31208e-07
2.19726e-07
1.92162e-08
-5.90046e-05
5.90388e-05
-6.0219e-05
6.00979e-05
1.12878e-08
7.42311e-09
-6.14199e-05
-1.54347e-07
6.13035e-05
2.63305e-07
-6.05807e-05
5.56645e-08
1.78654e-08
6.0569e-05
-5.4319e-08
1.34457e-08
-1.47582e-07
2.48044e-07
6.42021e-08
1.49058e-08
-6.87548e-08
-3.17894e-08
-5.99759e-05
5.98533e-05
-5.90555e-05
2.39065e-08
5.90554e-05
-2.57206e-08
2.16635e-08
-4.39619e-09
-6.08751e-05
-9.74666e-08
6.08075e-05
1.87262e-07
-6.09811e-05
-6.78814e-08
-1.17808e-09
6.09094e-05
1.36382e-07
-4.69398e-09
-9.05153e-08
1.72029e-07
-5.9938e-08
-1.13723e-09
1.20476e-07
-3.95916e-09
-5.94417e-05
5.93721e-05
-5.95345e-05
-1.17259e-09
5.94639e-05
-4.25096e-09
-1.11918e-09
-2.5488e-12
-6.09812e-05
-6.59514e-08
6.09129e-05
1.3313e-07
-6.09812e-05
-6.59516e-08
1.17259e-09
6.09128e-05
1.3313e-07
-1.93845e-12
-5.81675e-08
1.17661e-07
-5.81677e-08
1.13288e-09
1.17662e-07
-3.02122e-12
-5.95336e-05
5.94664e-05
-5.95336e-05
1.16621e-09
5.94664e-05
-2.13927e-12
1.11443e-09
4.38896e-09
-6.09811e-05
-6.78788e-08
6.09094e-05
1.36378e-07
-6.08751e-05
-9.74202e-08
-1.78778e-08
6.08076e-05
1.8722e-07
4.6874e-09
-5.99355e-08
1.20474e-07
-9.04695e-08
-1.49186e-08
1.71988e-07
3.95179e-09
-5.95345e-05
5.94639e-05
-5.94417e-05
-2.38721e-08
5.93721e-05
4.24464e-09
-2.16297e-08
-7.42804e-09
-6.05808e-05
5.56278e-08
6.0569e-05
-5.42738e-08
-6.142e-05
-1.54332e-07
6.13036e-05
2.63278e-07
-1.34498e-08
6.41584e-08
-6.87027e-08
-1.47519e-07
2.4797e-07
3.17794e-08
-5.90556e-05
5.90556e-05
-5.99761e-05
5.98535e-05
2.57112e-08
-2.60276e-09
-6.11867e-05
-1.67097e-07
6.10652e-05
2.91173e-07
-6.05427e-05
3.68075e-08
2.13985e-08
6.05048e-05
-2.29097e-08
2.02669e-09
-1.60313e-07
2.75078e-07
4.72553e-08
1.97051e-08
-3.86714e-08
-4.10835e-08
-5.97294e-05
5.96034e-05
-5.90411e-05
2.65762e-08
5.90102e-05
-3.6412e-08
2.51814e-08
-3.71854e-09
-6.07349e-05
-1.10659e-07
6.06549e-05
2.15746e-07
-6.08313e-05
-8.32507e-08
-1.25852e-09
6.07449e-05
1.67194e-07
-4.00196e-09
-1.02759e-07
1.99104e-07
-7.46474e-08
-1.19796e-09
1.49944e-07
-3.27529e-09
-5.92981e-05
5.92173e-05
-5.93869e-05
-1.31799e-09
5.93017e-05
-3.57679e-09
-1.21314e-09
-6.36588e-12
-6.08378e-05
-8.09357e-08
6.07542e-05
1.63322e-07
-6.08378e-05
-8.09362e-08
1.24073e-09
6.07542e-05
1.63326e-07
-4.05872e-12
-7.25642e-08
1.46408e-07
-7.25648e-08
1.18933e-09
1.46409e-07
-6.20351e-12
-5.93927e-05
5.93104e-05
-5.93927e-05
1.30314e-09
5.93104e-05
-4.58045e-12
1.20347e-09
3.68633e-09
-6.08313e-05
-8.32467e-08
6.07449e-05
1.67197e-07
-6.07349e-05
-1.10609e-07
-2.1478e-08
6.0655e-05
2.15729e-07
3.99158e-09
-7.46449e-08
1.49941e-07
-1.02715e-07
-1.97185e-08
1.99068e-07
3.25807e-09
-5.93869e-05
5.93017e-05
-5.92981e-05
-2.65516e-08
5.92173e-05
3.56659e-09
-2.51486e-08
2.66511e-09
-6.05427e-05
3.67874e-08
6.05049e-05
-2.30776e-08
-6.11868e-05
-1.67087e-07
6.10653e-05
2.91226e-07
-2.03344e-09
4.71886e-08
-3.85912e-08
-1.6032e-07
2.75094e-07
4.1079e-08
-5.90412e-05
5.90103e-05
-5.97296e-05
5.96036e-05
3.64013e-08
-1.0585e-08
-6.09416e-05
-1.8068e-07
6.08114e-05
3.21416e-07
-6.0455e-05
1.54189e-08
2.36884e-08
6.03934e-05
1.18783e-08
-6.86924e-09
-1.73261e-07
3.03759e-07
2.73461e-08
2.25624e-08
-6.94763e-09
-4.78978e-08
-5.94745e-05
5.93417e-05
-5.89661e-05
2.78822e-08
5.89057e-05
-4.43453e-08
2.71245e-08
-3.00352e-09
-6.05686e-05
-1.25429e-07
6.04734e-05
2.47303e-07
-6.06516e-05
-9.99383e-08
-1.67265e-09
6.05494e-05
2.00812e-07
-3.31114e-09
-1.16647e-07
2.2885e-07
-9.05701e-08
-1.30026e-09
1.81837e-07
-2.59239e-09
-5.91307e-05
5.90357e-05
-5.92099e-05
-1.87387e-09
5.91093e-05
-2.8975e-09
-1.72281e-09
-3.04228e-12
-6.06632e-05
-9.72495e-08
6.05625e-05
1.96262e-07
-6.06632e-05
-9.72502e-08
1.66471e-09
6.05625e-05
1.96264e-07
-4.35391e-12
-8.79853e-08
1.77658e-07
-8.79863e-08
1.29066e-09
1.7766e-07
-3.48951e-12
-5.92207e-05
5.91216e-05
-5.92207e-05
1.86517e-09
5.91216e-05
-4.7925e-12
1.71125e-09
2.99677e-09
-6.06516e-05
-9.99352e-08
6.05494e-05
2.00806e-07
-6.05686e-05
-1.25387e-07
-2.36986e-08
6.04734e-05
2.47266e-07
3.29997e-09
-9.05669e-08
1.81834e-07
-1.16602e-07
-2.25779e-08
2.28816e-07
2.58556e-09
-5.92099e-05
5.91093e-05
-5.91307e-05
-2.78442e-08
5.90358e-05
2.8873e-09
-2.70903e-08
1.0581e-08
-6.0455e-05
1.53344e-08
6.03935e-05
1.19255e-08
-6.09417e-05
-1.80699e-07
6.08115e-05
3.21439e-07
6.86647e-09
2.73032e-08
-6.88006e-09
-1.73242e-07
3.03792e-07
4.78878e-08
-5.89662e-05
5.89058e-05
-5.94747e-05
5.93419e-05
4.43349e-08
-1.64993e-08
-6.06775e-05
-1.95872e-07
6.05352e-05
3.54637e-07
-6.03172e-05
-8.06592e-09
2.47219e-08
6.02244e-05
5.9662e-08
-1.37001e-08
-1.87447e-07
3.3509e-07
3.03476e-09
2.41802e-08
3.52417e-08
-5.2571e-08
-5.92042e-05
5.90609e-05
-5.88311e-05
2.79315e-08
5.87426e-05
-4.99352e-08
2.77213e-08
-2.37126e-09
-6.03707e-05
-1.41851e-07
6.02578e-05
2.81867e-07
-6.04397e-05
-1.17945e-07
-1.8779e-09
6.03199e-05
2.37268e-07
-2.65043e-09
-1.32019e-07
2.61546e-07
-1.07655e-07
-1.81239e-09
2.16471e-07
-1.97199e-09
-5.89337e-05
5.88217e-05
-5.90013e-05
-1.93456e-09
5.88833e-05
-2.24969e-09
-1.90455e-09
-2.67448e-12
-6.04539e-05
-1.15388e-07
6.03347e-05
2.3272e-07
-6.04539e-05
-1.15388e-07
1.87122e-09
6.03347e-05
2.3272e-07
-2.65863e-12
-1.05032e-07
2.1187e-07
-1.05033e-07
1.80554e-09
2.11871e-07
-2.79009e-12
-5.90147e-05
5.88973e-05
-5.90147e-05
1.92757e-09
5.88973e-05
-2.85108e-12
1.89717e-09
2.36596e-09
-6.04397e-05
-1.17941e-07
6.03199e-05
2.37262e-07
-6.03707e-05
-1.41809e-07
-2.47293e-08
6.02578e-05
2.81828e-07
2.6448e-09
-1.07652e-07
2.16464e-07
-1.31977e-07
-2.41887e-08
2.61508e-07
1.96713e-09
-5.90013e-05
5.88833e-05
-5.89337e-05
-2.78904e-08
5.88218e-05
2.24429e-09
-2.76817e-08
1.64968e-08
-6.03173e-05
-8.10225e-09
6.02245e-05
5.97006e-08
-6.06776e-05
-1.95854e-07
6.05353e-05
3.54634e-07
1.3697e-08
2.97788e-09
3.52984e-08
-1.87475e-07
3.35119e-07
5.25616e-08
-5.88312e-05
5.87426e-05
-5.92043e-05
5.9061e-05
4.99255e-08
-2.05265e-08
-6.03874e-05
-2.13265e-07
6.02295e-05
3.91682e-07
-6.01179e-05
-3.02029e-08
2.44824e-08
5.99968e-05
1.06341e-07
-1.8503e-08
-2.03674e-07
3.70002e-07
-1.76762e-08
2.44607e-08
8.11987e-08
-5.60478e-08
-5.89112e-05
5.87539e-05
-5.86433e-05
2.79812e-08
5.85291e-05
-5.39395e-08
2.76346e-08
-1.82763e-09
-6.01363e-05
-1.60691e-07
6.00033e-05
3.19984e-07
-6.01917e-05
-1.37767e-07
-1.86867e-09
6.00523e-05
2.77297e-07
-2.06891e-09
-1.49482e-07
2.97527e-07
-1.26405e-07
-1.8674e-09
2.54361e-07
-1.43207e-09
-5.87016e-05
5.85703e-05
-5.87571e-05
-1.89095e-09
5.86198e-05
-1.67443e-09
-1.90314e-09
-3.06083e-12
-6.02067e-05
-1.355e-07
6.00671e-05
2.73264e-07
-6.02067e-05
-1.355e-07
1.86203e-09
6.00671e-05
2.73264e-07
-2.91805e-12
-1.24017e-07
2.50111e-07
-1.24017e-07
1.86084e-09
2.50111e-07
-3.11065e-12
-5.87714e-05
5.8634e-05
-5.87714e-05
1.88407e-09
5.8634e-05
-2.99344e-12
1.89632e-09
1.82274e-09
-6.01918e-05
-1.37764e-07
6.00523e-05
2.77291e-07
-6.01363e-05
-1.60655e-07
-2.44888e-08
6.00033e-05
3.1995e-07
2.06389e-09
-1.26401e-07
2.54354e-07
-1.49444e-07
-2.44673e-08
2.97491e-07
1.42759e-09
-5.87571e-05
5.86198e-05
-5.87016e-05
-2.79512e-08
5.85703e-05
1.66978e-09
-2.7605e-08
2.05253e-08
-6.0118e-05
-3.02517e-08
5.99968e-05
1.06392e-07
-6.03874e-05
-2.13275e-07
6.02295e-05
3.91713e-07
1.8501e-08
-1.77186e-08
8.12559e-08
-2.03664e-07
3.70028e-07
5.6039e-08
-5.86434e-05
5.85291e-05
-5.89113e-05
5.8754e-05
5.39305e-08
-2.34745e-08
-6.00647e-05
-2.33036e-07
5.98881e-05
4.33111e-07
-5.98636e-05
-5.53499e-08
2.37655e-08
5.97157e-05
1.56011e-07
-2.18903e-08
-2.22052e-07
4.08725e-07
-4.13486e-08
2.39233e-08
1.28737e-07
-5.84784e-08
-5.85887e-05
5.84142e-05
-5.84032e-05
2.78587e-08
5.82615e-05
-5.68196e-08
2.76895e-08
-1.37709e-09
-5.98608e-05
-1.81998e-07
5.97053e-05
3.62644e-07
-5.99036e-05
-1.59678e-07
-1.79266e-09
5.97421e-05
3.21537e-07
-1.57487e-09
-1.69327e-07
3.37341e-07
-1.46991e-07
-1.81794e-09
2.95923e-07
-9.8601e-10
-5.84298e-05
5.82767e-05
-5.84734e-05
-1.79789e-09
5.83146e-05
-1.18543e-09
-1.83032e-09
-3.24373e-12
-5.9918e-05
-1.57653e-07
5.97559e-05
3.17943e-07
-5.9918e-05
-1.57653e-07
1.78593e-09
5.97559e-05
3.17943e-07
-3.12962e-12
-1.44872e-07
2.92163e-07
-1.44872e-07
1.81132e-09
2.92163e-07
-3.27127e-12
-5.84873e-05
5.83279e-05
-5.84873e-05
1.79094e-09
5.83279e-05
-3.15997e-12
1.82349e-09
1.37242e-09
-5.99036e-05
-1.59675e-07
5.97421e-05
3.21531e-07
-5.98608e-05
-1.81964e-07
-2.37717e-08
5.97053e-05
3.6261e-07
1.57014e-09
-1.46987e-07
2.95917e-07
-1.69293e-07
-2.39296e-08
3.37307e-07
9.81799e-10
-5.84735e-05
5.83146e-05
-5.84299e-05
-2.78292e-08
5.82767e-05
1.18114e-09
-2.766e-08
2.34744e-08
-5.98636e-05
-5.5393e-08
5.97157e-05
1.56039e-07
-6.00647e-05
-2.33042e-07
5.98881e-05
4.33098e-07
2.18898e-08
-4.13977e-08
1.28777e-07
-2.22067e-07
4.08737e-07
5.84704e-08
-5.84033e-05
5.82616e-05
-5.85888e-05
5.84142e-05
5.68113e-08
-2.56629e-08
-5.97033e-05
-2.55271e-07
5.9505e-05
4.79216e-07
-5.95555e-05
-8.26051e-08
2.28236e-08
5.93798e-05
2.09809e-07
-2.44158e-08
-2.42857e-07
4.5214e-07
-6.7272e-08
2.30939e-08
1.79943e-07
-6.00831e-08
-5.82301e-05
5.80349e-05
-5.8108e-05
2.7446e-08
5.79379e-05
-5.88132e-08
2.7421e-08
-1.01832e-09
-5.95391e-05
-2.0573e-07
5.93586e-05
4.10146e-07
-5.95704e-05
-1.83888e-07
-1.68749e-09
5.93846e-05
3.70411e-07
-1.17548e-09
-1.91691e-07
3.82097e-07
-1.6987e-07
-1.72573e-09
3.42117e-07
-6.31197e-10
-5.81132e-05
5.79355e-05
-5.81456e-05
-1.68243e-09
5.79628e-05
-7.89935e-10
-1.72531e-09
-3.37282e-12
-5.95834e-05
-1.82043e-07
5.93966e-05
3.67144e-07
-5.95834e-05
-1.82043e-07
1.68067e-09
5.93966e-05
3.67144e-07
-3.28529e-12
-1.67957e-07
3.38726e-07
-1.67957e-07
1.71901e-09
3.38726e-07
-3.39985e-12
-5.81582e-05
5.79745e-05
-5.81582e-05
1.67538e-09
5.79745e-05
-3.30828e-12
1.71837e-09
1.01379e-09
-5.95704e-05
-1.83885e-07
5.93846e-05
3.70406e-07
-5.95392e-05
-2.05698e-07
-2.28294e-08
5.93586e-05
4.10115e-07
1.17093e-09
-1.69867e-07
3.42111e-07
-1.91658e-07
-2.30999e-08
3.82064e-07
6.27142e-10
-5.81457e-05
5.79628e-05
-5.81132e-05
-2.7417e-08
5.79356e-05
7.85849e-10
-2.7392e-08
2.56633e-08
-5.95555e-05
-8.26431e-08
5.93799e-05
2.0984e-07
-5.97033e-05
-2.55266e-07
5.9505e-05
4.79202e-07
2.4416e-08
-6.73124e-08
1.79972e-07
-2.42857e-07
4.52122e-07
6.00759e-08
-5.81081e-05
5.79379e-05
-5.82302e-05
5.8035e-05
5.88057e-08
-2.72686e-08
-5.92972e-05
-2.80059e-07
5.90742e-05
5.30383e-07
-5.91913e-05
-1.12049e-07
2.1756e-08
5.89861e-05
2.68252e-07
-2.62661e-08
-2.6608e-07
5.00111e-07
-9.52841e-08
2.2081e-08
2.35414e-07
-6.10529e-08
-5.78289e-05
5.76099e-05
-5.77557e-05
2.68418e-08
5.75557e-05
-6.00438e-08
2.68966e-08
-7.43039e-10
-5.91664e-05
-2.31942e-07
5.89581e-05
4.62676e-07
-5.91875e-05
-2.1052e-07
-1.57266e-09
5.89747e-05
4.2418e-07
-8.62343e-10
-2.16333e-07
4.31448e-07
-1.94957e-07
-1.61438e-09
3.92765e-07
-3.60067e-10
-5.77466e-05
5.75418e-05
-5.7769e-05
-1.56063e-09
5.75597e-05
-4.80939e-10
-1.60558e-09
-3.48884e-12
-5.91985e-05
-2.08818e-07
5.89846e-05
4.21175e-07
-5.91985e-05
-2.08818e-07
1.56571e-09
5.89846e-05
4.21175e-07
-3.39871e-12
-1.93205e-07
3.89666e-07
-1.93205e-07
1.60757e-09
3.89665e-07
-3.50952e-12
-5.77797e-05
5.75693e-05
-5.77797e-05
1.55345e-09
5.75693e-05
-3.42326e-12
1.59853e-09
7.38574e-10
-5.91875e-05
-2.10517e-07
5.89747e-05
4.24175e-07
-5.91664e-05
-2.31911e-07
-2.17614e-08
5.89582e-05
4.62646e-07
8.57879e-10
-1.94954e-07
3.9276e-07
-2.16301e-07
-2.20866e-08
4.31417e-07
3.56063e-10
-5.7769e-05
5.75597e-05
-5.77466e-05
-2.68133e-08
5.75419e-05
4.76951e-10
-2.68681e-08
2.7269e-08
-5.91914e-05
-1.12086e-07
5.89862e-05
2.68284e-07
-5.92972e-05
-2.80054e-07
5.90742e-05
5.30378e-07
2.62665e-08
-9.53227e-08
2.35447e-07
-2.66075e-07
5.00104e-07
6.10463e-08
-5.77557e-05
5.75558e-05
-5.78289e-05
5.76099e-05
6.00369e-08
-2.8435e-08
-5.88403e-05
-3.07603e-07
5.85893e-05
5.87072e-07
-5.87674e-05
-1.43917e-07
2.06304e-08
5.85304e-05
3.3177e-07
-2.76185e-08
-2.91919e-07
5.53367e-07
-1.25577e-07
2.09851e-08
2.95707e-07
-6.15618e-08
-5.73787e-05
5.71327e-05
-5.73432e-05
2.61272e-08
5.71116e-05
-6.07476e-08
2.62312e-08
-5.41112e-10
-5.87373e-05
-2.60837e-07
5.84986e-05
5.20653e-07
-5.87496e-05
-2.39808e-07
-1.46002e-09
5.8507e-05
4.83323e-07
-6.27331e-10
-2.4355e-07
4.86028e-07
-2.22579e-07
-1.50043e-09
4.48538e-07
-1.62382e-10
-5.73248e-05
5.70902e-05
-5.73383e-05
-1.44334e-09
5.70998e-05
-2.50125e-10
-1.48596e-09
-3.58008e-12
-5.87584e-05
-2.38215e-07
5.85147e-05
4.80515e-07
-5.87584e-05
-2.38215e-07
1.45294e-09
5.85147e-05
4.80515e-07
-3.49723e-12
-2.20951e-07
4.45665e-07
-2.20952e-07
1.49348e-09
4.45665e-07
-3.60011e-12
-5.73469e-05
5.71072e-05
-5.73469e-05
1.43602e-09
5.71072e-05
-3.52388e-12
1.47878e-09
5.36629e-10
-5.87496e-05
-2.39805e-07
5.8507e-05
4.83318e-07
-5.87373e-05
-2.60806e-07
-2.06355e-08
5.84987e-05
5.20624e-07
6.22834e-10
-2.22576e-07
4.48534e-07
-2.43519e-07
-2.09903e-08
4.85998e-07
1.58373e-10
-5.73383e-05
5.70998e-05
-5.73248e-05
-2.60994e-08
5.70903e-05
2.46147e-10
-2.62034e-08
2.84355e-08
-5.87674e-05
-1.43953e-07
5.85305e-05
3.31802e-07
-5.88404e-05
-3.07599e-07
5.85893e-05
5.8707e-07
2.76189e-08
-1.25614e-07
2.9574e-07
-2.91916e-07
5.53365e-07
6.15556e-08
-5.73432e-05
5.71116e-05
-5.73788e-05
5.71327e-05
6.07413e-08
-2.92312e-08
-5.83263e-05
-3.37627e-07
5.80444e-05
6.48761e-07
-5.82793e-05
-1.78171e-07
1.94635e-08
5.80086e-05
4.00167e-07
-2.85791e-08
-3.20425e-07
6.11969e-07
-1.58292e-07
1.9846e-08
3.61011e-07
-6.16487e-08
-5.68733e-05
5.65973e-05
-5.68668e-05
2.53205e-08
5.66016e-05
-6.10307e-08
2.54731e-08
-4.01366e-10
-5.82464e-05
-2.92179e-07
5.79748e-05
5.83617e-07
-5.82512e-05
-2.71543e-07
-1.35442e-09
5.79762e-05
5.47424e-07
-4.59431e-10
-2.73368e-07
5.45895e-07
-2.52786e-07
-1.39177e-09
5.09544e-07
-2.75654e-11
-5.68424e-05
5.65756e-05
-5.68483e-05
-1.33492e-09
5.6578e-05
-8.67705e-11
-1.37365e-09
-3.63406e-12
-5.82577e-05
-2.7004e-07
5.79816e-05
5.44777e-07
-5.82577e-05
-2.7004e-07
1.34724e-09
5.79816e-05
5.44778e-07
-3.5765e-12
-2.51257e-07
5.06849e-07
-2.51257e-07
1.38471e-09
5.06849e-07
-3.65985e-12
-5.68546e-05
5.65832e-05
-5.68546e-05
1.32749e-09
5.65832e-05
-3.5983e-12
1.36634e-09
3.96877e-10
-5.82512e-05
-2.71541e-07
5.79763e-05
5.47419e-07
-5.82464e-05
-2.92149e-07
-1.94683e-08
5.79749e-05
5.83588e-07
4.54972e-10
-2.52784e-07
5.0954e-07
-2.73339e-07
-1.98508e-08
5.45867e-07
2.35523e-11
-5.68483e-05
5.65781e-05
-5.68424e-05
-2.52933e-08
5.65756e-05
8.27928e-11
-2.54459e-08
2.92317e-08
-5.82794e-05
-1.78206e-07
5.80087e-05
4.00199e-07
-5.83264e-05
-3.37623e-07
5.80445e-05
6.4876e-07
2.85796e-08
-1.58328e-07
3.61043e-07
-3.20423e-07
6.11969e-07
6.1643e-08
-5.68668e-05
5.66017e-05
-5.68733e-05
5.65973e-05
6.10248e-08
-2.97728e-08
-5.77493e-05
-3.70545e-07
5.74333e-05
7.16258e-07
-5.77227e-05
-2.15053e-07
1.83087e-08
5.74157e-05
4.73956e-07
-2.92384e-08
-3.51654e-07
6.7604e-07
-1.93526e-07
1.86979e-08
4.31471e-07
-6.14745e-08
-5.63066e-05
5.59976e-05
-5.63224e-05
2.44876e-08
5.60214e-05
-6.09906e-08
2.46632e-08
-3.14224e-10
-5.76886e-05
-3.26321e-07
5.73812e-05
6.52281e-07
-5.76869e-05
-3.06055e-07
-1.26146e-09
5.73768e-05
6.17147e-07
-3.48439e-10
-3.05837e-07
6.11158e-07
-2.85629e-07
-1.29342e-09
5.75888e-07
5.42427e-11
-5.62944e-05
5.59925e-05
-5.62937e-05
-1.24069e-09
5.59889e-05
1.92324e-11
-1.2733e-09
-3.68065e-12
-5.76911e-05
-3.04628e-07
5.73799e-05
6.14639e-07
-5.76911e-05
-3.04628e-07
1.25421e-09
5.73799e-05
6.1464e-07
-3.62774e-12
-2.84181e-07
5.7334e-07
-2.84181e-07
1.28627e-09
5.7334e-07
-3.70378e-12
-5.62978e-05
5.59919e-05
-5.62978e-05
1.23316e-09
5.59919e-05
-3.64886e-12
1.26588e-09
3.09768e-10
-5.76869e-05
-3.06052e-07
5.73768e-05
6.17142e-07
-5.76886e-05
-3.26292e-07
-1.83132e-08
5.73812e-05
6.52253e-07
3.44004e-10
-2.85627e-07
5.75884e-07
-3.05808e-07
-1.87025e-08
6.11131e-07
-5.82573e-11
-5.62937e-05
5.5989e-05
-5.62944e-05
-2.4461e-08
5.59925e-05
-2.32123e-11
-2.46366e-08
2.97732e-08
-5.77228e-05
-2.15086e-07
5.74158e-05
4.73987e-07
-5.77493e-05
-3.70542e-07
5.74334e-05
7.16257e-07
2.92388e-08
-1.93561e-07
4.31503e-07
-3.51652e-07
6.76041e-07
6.14692e-08
-5.63225e-05
5.60215e-05
-5.63067e-05
5.59976e-05
6.09852e-08
-3.01119e-08
-5.7103e-05
-4.06227e-07
5.675e-05
7.89331e-07
-5.70927e-05
-2.54527e-07
1.71774e-08
5.67469e-05
5.53025e-07
-2.9668e-08
-3.85632e-07
7.45654e-07
-2.31328e-07
1.75643e-08
5.07169e-07
-6.10817e-08
-5.56726e-05
5.53275e-05
-5.57056e-05
2.36422e-08
5.53663e-05
-6.07034e-08
2.38301e-08
-2.7007e-10
-5.70582e-05
-3.63168e-07
5.67123e-05
7.2646e-07
-5.70512e-05
-3.43253e-07
-1.18274e-09
5.67031e-05
6.92318e-07
-2.8452e-10
-3.40989e-07
6.81892e-07
-3.21138e-07
-1.20826e-09
6.47636e-07
9.22881e-11
-5.56753e-05
5.53357e-05
-5.56691e-05
-1.16199e-09
5.53271e-05
7.75135e-11
-1.18755e-09
-3.71915e-12
-5.70532e-05
-3.41891e-07
5.6704e-05
6.89931e-07
-5.70532e-05
-3.41891e-07
1.17541e-09
5.6704e-05
6.89932e-07
-3.67091e-12
-3.1976e-07
6.45216e-07
-3.1976e-07
1.20104e-09
6.45216e-07
-3.73855e-12
-5.5671e-05
5.53279e-05
-5.5671e-05
1.15439e-09
5.53279e-05
-3.68723e-12
1.18005e-09
2.65651e-10
-5.70512e-05
-3.4325e-07
5.67031e-05
6.92313e-07
-5.70582e-05
-3.63139e-07
-1.71816e-08
5.67123e-05
7.26433e-07
2.80127e-10
-3.21136e-07
6.47631e-07
-3.40961e-07
-1.75687e-08
6.81864e-07
-9.63199e-11
-5.56691e-05
5.53271e-05
-5.56753e-05
-2.36162e-08
5.53357e-05
-8.14968e-11
-2.3804e-08
3.01123e-08
-5.70927e-05
-2.54559e-07
5.67469e-05
5.53055e-07
-5.7103e-05
-4.06224e-07
5.675e-05
7.8933e-07
2.96683e-08
-2.31362e-07
5.072e-07
-3.8563e-07
7.45655e-07
6.10768e-08
-5.57056e-05
5.53663e-05
-5.56727e-05
5.53275e-05
6.06983e-08
-3.02975e-08
-5.63815e-05
-4.44612e-07
5.59885e-05
8.67868e-07
-5.63841e-05
-2.96535e-07
1.60827e-08
5.5997e-05
6.37247e-07
-2.9923e-08
-4.22325e-07
8.2075e-07
-2.71682e-07
1.64613e-08
5.88059e-07
-6.05219e-08
-5.49654e-05
5.45813e-05
-5.50114e-05
2.28016e-08
5.46315e-05
-6.02272e-08
2.2994e-08
-2.61082e-10
-5.63498e-05
-4.02683e-07
5.59627e-05
8.06095e-07
-5.63385e-05
-3.83091e-07
-1.11887e-09
5.59496e-05
7.72854e-07
-2.59093e-10
-3.78809e-07
7.58063e-07
-3.59294e-07
-1.13771e-09
7.24756e-07
9.42293e-11
-5.49797e-05
5.45998e-05
-5.4969e-05
-1.09941e-09
5.45871e-05
9.64743e-11
-1.11763e-09
-3.74234e-12
-5.63384e-05
-3.81781e-07
5.59485e-05
7.70562e-07
-5.63384e-05
-3.81781e-07
1.11152e-09
5.59485e-05
7.70562e-07
-3.69861e-12
-3.57974e-07
7.22443e-07
-3.57974e-07
1.13043e-09
7.22444e-07
-3.76912e-12
-5.49688e-05
5.45859e-05
-5.49688e-05
1.09174e-09
5.45859e-05
-3.71698e-12
1.11006e-09
2.56562e-10
-5.63385e-05
-3.83088e-07
5.59496e-05
7.72849e-07
-5.63498e-05
-4.02654e-07
-1.60867e-08
5.59627e-05
8.06066e-07
2.5467e-10
-3.59292e-07
7.24751e-07
-3.78781e-07
-1.64653e-08
7.58036e-07
-9.83468e-11
-5.4969e-05
5.45871e-05
-5.49798e-05
-2.27762e-08
5.45998e-05
-1.00507e-10
-2.29685e-08
3.02978e-08
-5.63842e-05
-2.96566e-07
5.59971e-05
6.37277e-07
-5.63815e-05
-4.44609e-07
5.59885e-05
8.67868e-07
2.99233e-08
-2.71716e-07
5.8809e-07
-4.22323e-07
8.20751e-07
6.05174e-08
-5.50114e-05
5.46316e-05
-5.49654e-05
5.45813e-05
6.02225e-08
-3.03605e-08
-5.55792e-05
-4.85461e-07
5.51436e-05
9.51413e-07
-5.55923e-05
-3.40912e-07
1.51304e-08
5.51615e-05
7.26192e-07
-3.0034e-08
-4.61457e-07
9.00803e-07
-3.14375e-07
1.53937e-08
6.73666e-07
-5.98215e-08
-5.41794e-05
5.37538e-05
-5.42354e-05
2.19733e-08
5.38127e-05
-5.95831e-08
2.21606e-08
-2.81706e-10
-5.55582e-05
-4.44633e-07
5.51274e-05
8.90812e-07
-5.55435e-05
-4.25357e-07
-1.06923e-09
5.51113e-05
8.58328e-07
-2.65233e-10
-4.19063e-07
8.39254e-07
-3.9986e-07
-1.08129e-09
8.06777e-07
6.62525e-11
-5.42028e-05
5.37801e-05
-5.41884e-05
-1.05225e-09
5.37641e-05
8.28278e-11
-1.06311e-09
-3.78417e-12
-5.55414e-05
-4.24085e-07
5.51084e-05
8.56106e-07
-5.55414e-05
-4.24085e-07
1.06181e-09
5.51084e-05
8.56107e-07
-3.72618e-12
-3.98584e-07
8.04546e-07
-3.98584e-07
1.07398e-09
8.04546e-07
-3.81671e-12
-5.41863e-05
5.37612e-05
-5.41863e-05
1.04451e-09
5.37612e-05
-3.75215e-12
1.05548e-09
2.77103e-10
-5.55435e-05
-4.25354e-07
5.51113e-05
8.58323e-07
-5.55582e-05
-4.44605e-07
-1.51322e-08
5.51274e-05
8.90783e-07
2.60704e-10
-3.99857e-07
8.06772e-07
-4.19035e-07
-1.53975e-08
8.39226e-07
-7.04857e-11
-5.41884e-05
5.37642e-05
-5.42028e-05
-2.19486e-08
5.37801e-05
-8.69607e-11
-2.21358e-08
3.03607e-08
-5.55923e-05
-3.40943e-07
5.51616e-05
7.26222e-07
-5.55792e-05
-4.85459e-07
5.51436e-05
9.51413e-07
3.00343e-08
-3.14407e-07
6.73697e-07
-4.61455e-07
9.00804e-07
5.98173e-08
-5.42355e-05
5.38127e-05
-5.41794e-05
5.37538e-05
5.95788e-08
-3.03326e-08
-5.46907e-05
-5.28719e-07
5.42099e-05
1.03984e-06
-5.47122e-05
-3.8763e-07
1.447e-08
5.42353e-05
8.1972e-07
-3.00557e-08
-5.03227e-07
9.86195e-07
-3.59568e-07
1.46498e-08
7.64201e-07
-5.90253e-08
-5.33094e-05
5.28397e-05
-5.33729e-05
2.11687e-08
5.29051e-05
-5.88522e-08
2.13567e-08
-3.23341e-10
-5.46784e-05
-4.889e-07
5.42016e-05
9.80464e-07
-5.4661e-05
-4.69976e-07
-1.0332e-09
5.41831e-05
9.48596e-07
-2.97249e-10
-4.61861e-07
9.25828e-07
-4.42989e-07
-1.03925e-09
8.94012e-07
1.53927e-11
-5.33395e-05
5.28718e-05
-5.33222e-05
-1.01977e-09
5.28533e-05
4.29399e-11
-1.02407e-09
-3.85089e-12
-5.46572e-05
-4.6873e-07
5.41785e-05
9.46424e-07
-5.46572e-05
-4.6873e-07
1.02569e-09
5.41785e-05
9.46424e-07
-3.77991e-12
-4.41745e-07
8.9184e-07
-4.41745e-07
1.03186e-09
8.91841e-07
-3.88568e-12
-5.33184e-05
5.28487e-05
-5.33184e-05
1.01192e-09
5.28487e-05
-3.80935e-12
1.01635e-09
3.18594e-10
-5.4661e-05
-4.69973e-07
5.41831e-05
9.48591e-07
-5.46784e-05
-4.88872e-07
-1.44717e-08
5.42017e-05
9.80434e-07
2.92626e-10
-4.42986e-07
8.94007e-07
-4.61833e-07
-1.46516e-08
9.25798e-07
-1.97763e-11
-5.33222e-05
5.28533e-05
-5.33395e-05
-2.11446e-08
5.28718e-05
-4.72012e-11
-2.13325e-08
3.03328e-08
-5.47122e-05
-3.8766e-07
5.42353e-05
8.1975e-07
-5.46907e-05
-5.28717e-07
5.42099e-05
1.03984e-06
3.0056e-08
-3.59599e-07
7.64232e-07
-5.03225e-07
9.86195e-07
5.90214e-08
-5.3373e-05
5.29051e-05
-5.33094e-05
5.28397e-05
5.88483e-08
-3.02335e-08
-5.37111e-05
-5.7409e-07
5.31829e-05
1.13257e-06
-5.37393e-05
-4.36388e-07
1.38435e-08
5.32142e-05
9.17376e-07
-2.99893e-08
-5.47119e-07
1.07591e-06
-4.06857e-07
1.40115e-08
8.5889e-07
-5.81512e-08
-5.23506e-05
5.18347e-05
-5.24197e-05
2.03903e-08
5.19047e-05
-5.80204e-08
2.05715e-08
-3.81968e-10
-5.3706e-05
-5.35233e-07
5.31811e-05
1.07438e-06
-5.36865e-05
-5.16659e-07
-1.00983e-09
5.31607e-05
1.04308e-06
-3.47315e-10
-5.06729e-07
1.01674e-06
-4.88207e-07
-1.0099e-09
9.85513e-07
-5.31129e-11