/*--------------------------------*- C++ -*----------------------------------*\
  =========                 |
  \\      /  F ield         | OpenFOAM: The Open Source CFD Toolbox
   \\    /   O peration     | Website:  https://openfoam.org
    \\  /    A nd           | Version:  9
     \\/     M anipulation  |
\*---------------------------------------------------------------------------*/
FoamFile
{
    format      ascii;
    class       volScalarField;
    location    "0.5";
    object      k;
}
// * * * * * * * * * * * * * * * * * * * * * * * * * * * * * * * * * * * * * //

dimensions      [0 2 -2 0 0 0 0];

internalField   nonuniform List<scalar> 
36360
(
0.0266108
0.0206061
0.013316
0.011567
0.00577503
0.00373439
0.00413963
0.00338234
0.00415941
0.00223316
0.00343768
0.00283235
0.00247107
0.00235489
0.00302248
0.00299428
0.00213262
0.00213259
0.00281195
0.00281195
0.00234802
0.00234802
0.00299232
0.00299232
0.00223276
0.00415655
0.00283232
0.00343714
0.00235485
0.00247081
0.00299428
0.00302247
0.0206003
0.0266166
0.0115667
0.0133165
0.00373369
0.00577574
0.00338228
0.00413963
0.0345866
0.0260979
0.0326011
0.0247036
0.00703344
0.00429333
0.00673484
0.00414023
0.00523784
0.00205578
0.00494856
0.00208464
0.00228786
0.00209622
0.00231901
0.00214691
0.00187599
0.00187592
0.001926
0.00192594
0.00208562
0.00208562
0.00213727
0.00213726
0.00205467
0.00522979
0.00208375
0.00494215
0.00209614
0.00228716
0.00214685
0.00231845
0.0260855
0.0345994
0.0246934
0.0326114
0.00429134
0.00703531
0.00413863
0.00673635
0.0351998
0.0265617
0.0351204
0.0264924
0.00706704
0.00435634
0.00707334
0.00433973
0.00533421
0.0020505
0.00532084
0.00205161
0.00228242
0.00208522
0.00228299
0.00208616
0.00186485
0.00186477
0.00186584
0.00186576
0.00207453
0.00207452
0.00207535
0.00207535
0.0020493
0.00532542
0.00205042
0.00531225
0.00208514
0.00228167
0.00208608
0.00228225
0.0265481
0.0352137
0.0264793
0.0351342
0.00435415
0.00706909
0.00433762
0.00707538
0.0351808
0.0265686
0.0352116
0.026584
0.00705656
0.00436156
0.00706421
0.00436298
0.00533342
0.00205052
0.00533762
0.00205035
0.00228168
0.00208429
0.00228217
0.00208465
0.00186484
0.00186476
0.00186436
0.00186428
0.00207365
0.00207364
0.00207394
0.00207394
0.00204932
0.0053247
0.00204915
0.00532887
0.00208421
0.00228094
0.00208457
0.00228142
0.0265553
0.035195
0.0265706
0.0352257
0.00435945
0.00705867
0.00436084
0.00706629
0.0351338
0.0265452
0.035172
0.0265677
0.00704486
0.00435659
0.00705328
0.00436108
0.00532734
0.00204951
0.00533272
0.00205032
0.0022805
0.00208402
0.00228116
0.00208378
0.00186483
0.00186475
0.00186443
0.00186435
0.00207352
0.00207352
0.00207315
0.00207314
0.00204831
0.00531865
0.00204912
0.00532402
0.00208394
0.00227976
0.00208369
0.00228041
0.026532
0.035148
0.0265545
0.0351862
0.00435449
0.00704697
0.00435897
0.0070554
0.0350748
0.0265129
0.0351188
0.0265393
0.00703154
0.00434796
0.0070408
0.00435395
0.00531929
0.00204922
0.00532566
0.00204915
0.002279
0.00208295
0.00227981
0.00208342
0.00186483
0.00186476
0.0018644
0.00186432
0.00207246
0.00207246
0.00207293
0.00207292
0.00204803
0.00531064
0.00204795
0.00531698
0.00208287
0.00227826
0.00208334
0.00227907
0.0264998
0.0350891
0.0265261
0.035133
0.00434588
0.00703367
0.00435185
0.00704292
0.035008
0.026476
0.035056
0.0265043
0.00701739
0.00433842
0.00702711
0.00434478
0.00530996
0.00204805
0.00531689
0.00204896
0.00227732
0.002082
0.00227821
0.00208237
0.00186479
0.00186471
0.00186441
0.00186433
0.00207161
0.00207161
0.00207186
0.00207186
0.00204686
0.00530136
0.00204776
0.00530825
0.00208192
0.00227659
0.00208228
0.00227748
0.026463
0.0350223
0.0264912
0.0350703
0.00433638
0.00701958
0.00434271
0.00702926
0.0349342
0.0264365
0.0349861
0.0264663
0.00700247
0.00432818
0.00701263
0.00433492
0.00530009
0.00204768
0.00530726
0.00204763
0.00227547
0.00208098
0.00227645
0.00208137
0.00186479
0.00186472
0.00186435
0.00186427
0.00207062
0.00207062
0.00207101
0.002071
0.0020465
0.00529151
0.00204644
0.00529867
0.0020809
0.00227474
0.00208129
0.00227572
0.0264235
0.0349485
0.0264533
0.0350005
0.00432614
0.00700466
0.00433289
0.00701483
0.0348535
0.0263949
0.0349094
0.0264258
0.00698681
0.00431749
0.00699744
0.00432446
0.00528977
0.00204648
0.00529722
0.0020474
0.00227344
0.00207975
0.00227451
0.00208027
0.00186475
0.00186467
0.00186437
0.00186429
0.00206946
0.00206945
0.00206991
0.0020699
0.00204529
0.00528117
0.00204621
0.00528863
0.00207967
0.00227271
0.00208019
0.00227378
0.0263818
0.0348677
0.0264128
0.0349237
0.00431544
0.00698896
0.00432241
0.00699962
0.0347657
0.0263512
0.0348259
0.0263833
0.00697029
0.00430646
0.00698145
0.0043136
0.00527908
0.00204607
0.00528674
0.00204603
0.00227121
0.00207835
0.00227237
0.00207893
0.00186474
0.00186467
0.0018643
0.00186422
0.0020681
0.00206809
0.00206864
0.00206864
0.00204488
0.00527047
0.00204485
0.00527813
0.00207827
0.00227048
0.00207885
0.00227164
0.026338
0.0347797
0.0263702
0.03484
0.00430439
0.00697239
0.00431153
0.00698359
0.0346695
0.0263051
0.0347347
0.0263387
0.00695275
0.00429524
0.00696455
0.00430245
0.00526786
0.00204483
0.00527587
0.00204577
0.00226875
0.0020767
0.00227004
0.00207743
0.00186469
0.00186462
0.00186431
0.00186423
0.0020665
0.0020665
0.00206716
0.00206716
0.00204365
0.00525922
0.00204458
0.00526724
0.00207662
0.00226802
0.00207735
0.0022693
0.0262918
0.0346833
0.0263255
0.0347486
0.00429314
0.00695479
0.00430037
0.00696662
0.0345635
0.0262554
0.0346345
0.0262914
0.00693393
0.00428404
0.00694649
0.00429117
0.00525594
0.00204444
0.00526434
0.00204437
0.00226604
0.00207483
0.00226745
0.00207563
0.0018647
0.00186462
0.00186424
0.00186417
0.00206466
0.00206466
0.00206544
0.00206544
0.00204326
0.00524731
0.00204318
0.0052557
0.00207475
0.00226531
0.00207555
0.00226672
0.0262421
0.0345772
0.0262781
0.0346482
0.00428194
0.00693593
0.00428907
0.00694851
0.0344471
0.0262007
0.0345237
0.0262395
0.00691371
0.00427345
0.00692703
0.00428017
0.00524325
0.00204379
0.0052521
0.00204404
0.00226303
0.00207268
0.00226459
0.00207363
0.00186469
0.00186462
0.00186426
0.00186419
0.00206255
0.00206254
0.00206346
0.00206346
0.00204261
0.00523465
0.00204286
0.00524349
0.0020726
0.0022623
0.00207355
0.00226386
0.0261874
0.0344606
0.0262262
0.0345373
0.00427136
0.0069157
0.00427808
0.00692903
0.0343199
0.0261416
0.0344022
0.0261828
0.00689206
0.00426258
0.00690615
0.00426964
0.00522988
0.00204291
0.00523912
0.00204322
0.00225968
0.00207022
0.00226141
0.00207132
0.00186466
0.00186458
0.00186424
0.00186416
0.00206012
0.00206012
0.00206119
0.00206119
0.00204174
0.00522132
0.00204204
0.00523054
0.00207014
0.00225895
0.00207124
0.00226069
0.0261284
0.0343334
0.0261695
0.0344157
0.0042605
0.00689403
0.00426756
0.00690813
0.0341813
0.0260784
0.0342696
0.0261219
0.00686887
0.00425095
0.00688378
0.00425843
0.00521584
0.00204197
0.00522548
0.0020423
0.00225595
0.00206741
0.00225788
0.00206868
0.00186462
0.00186454
0.0018642
0.00186412
0.00205736
0.00205736
0.0020586
0.00205859
0.00204081
0.00520733
0.00204114
0.00521694
0.00206733
0.00225523
0.0020686
0.00225715
0.0260652
0.0341948
0.0261087
0.0342831
0.00424889
0.00687083
0.00425636
0.00688575
0.0340308
0.026011
0.0341253
0.0260569
0.00684405
0.00423852
0.00685983
0.00424643
0.00520111
0.00204098
0.00521116
0.00204134
0.00225183
0.00206425
0.00225395
0.0020657
0.00186456
0.00186449
0.00186415
0.00186407
0.00205424
0.00205424
0.00205566
0.00205565
0.00203982
0.00519264
0.00204018
0.00520266
0.00206417
0.00225111
0.00206562
0.00225323
0.0259979
0.0340442
0.0260437
0.0341387
0.00423647
0.006846
0.00424437
0.00686179
0.0338676
0.0259391
0.0339687
0.0259876
0.00681751
0.00422523
0.0068342
0.00423361
0.00518565
0.00203994
0.00519614
0.00204032
0.00224727
0.00206068
0.00224961
0.00206233
0.0018645
0.00186443
0.00186409
0.00186402
0.00205073
0.00205073
0.00205234
0.00205233
0.00203879
0.00517722
0.00203917
0.00518768
0.00206061
0.00224656
0.00206225
0.0022489
0.0259261
0.0338809
0.0259745
0.033982
0.00422319
0.00681944
0.00423156
0.00683614
0.0336912
0.0258626
0.0337991
0.0259138
0.00678917
0.00421102
0.00680679
0.0042199
0.00516941
0.00203886
0.00518037
0.00203927
0.00224224
0.0020567
0.00224482
0.00205855
0.00186443
0.00186436
0.00186403
0.00186395
0.0020468
0.00204679
0.00204861
0.00204861
0.00203772
0.00516104
0.00203812
0.00517196
0.00205662
0.00224153
0.00205847
0.00224411
0.0258496
0.0337044
0.0259007
0.0338124
0.004209
0.00679108
0.00421787
0.00680872
0.0335012
0.0257813
0.0336161
0.0258353
0.00675896
0.00419586
0.00677756
0.00420526
0.00515238
0.00203774
0.00516382
0.00203817
0.00223672
0.00205226
0.00223955
0.00205434
0.00186435
0.00186428
0.00186395
0.00186388
0.00204241
0.00204241
0.00204445
0.00204445
0.0020366
0.00514407
0.00203703
0.00515547
0.00205218
0.00223602
0.00205426
0.00223884
0.0257684
0.0335143
0.0258223
0.0336292
0.00419385
0.00676086
0.00420324
0.00677946
0.0332975
0.0256953
0.0334193
0.0257519
0.00672689
0.00417972
0.00674644
0.00418965
0.00513458
0.00203656
0.00514648
0.00203702
0.00223067
0.00204733
0.00223377
0.00204965
0.00186426
0.00186418
0.00186386
0.00186379
0.00203755
0.00203754
0.00203982
0.00203982
0.00203544
0.00512632
0.00203589
0.00513818
0.00204726
0.00222998
0.00204957
0.00223307
0.0256824
0.0333105
0.025739
0.0334324
0.00417773
0.00672876
0.00418765
0.00674833
0.03308
0.0256044
0.0332088
0.0256636
0.00669293
0.00416258
0.00671344
0.00417304
0.005116
0.00203534
0.00512836
0.00203582
0.00222408
0.0020419
0.00222745
0.00204447
0.00186415
0.00186408
0.00186376
0.00186369
0.00203218
0.00203218
0.0020347
0.0020347
0.00203422
0.00510781
0.0020347
0.00512012
0.00204183
0.00222339
0.0020444
0.00222675
0.0255917
0.0330929
0.0256508
0.0332217
0.0041606
0.00669479
0.00417105
0.00671531
0.0328491
0.025509
0.0329846
0.0255706
0.00665716
0.00414442
0.00667859
0.00415541
0.00509667
0.00203407
0.00510946
0.00203458
0.00221692
0.00203595
0.00222057
0.00203878
0.00186402
0.00186395
0.00186365
0.00186357
0.00202629
0.00202628
0.00202907
0.00202906
0.00203296
0.00508855
0.00203346
0.00510129
0.00203587
0.00221623
0.0020387
0.00221988
0.0254963
0.0328619
0.0255579
0.0329974
0.00414246
0.00665899
0.00415344
0.00668043
0.0326054
0.0254091
0.0327472
0.025473
0.00661965
0.00412526
0.00664194
0.00413676
0.00507662
0.00203275
0.00508979
0.00203328
0.00220917
0.00202944
0.00221311
0.00203254
0.00186388
0.00186381
0.00186351
0.00186344
0.00201985
0.00201984
0.0020229
0.00202289
0.00203165
0.00506857
0.00203218
0.00508169
0.00202937
0.00220849
0.00203247
0.00221243
0.0253965
0.0326181
0.0254603
0.0327599
0.00412332
0.00662146
0.00413481
0.00664376
0.0323498
0.0253051
0.0324974
0.025371
0.00658055
0.00410512
0.00660362
0.00411711
0.00505592
0.00203137
0.00506942
0.00203193
0.00220083
0.00202238
0.00220506
0.00202575
0.00186371
0.00186364
0.00186335
0.00186328
0.00201285
0.00201285
0.00201618
0.00201617
0.00203029
0.00504794
0.00203084
0.00506139
0.00202231
0.00220016
0.00202568
0.00220439
0.0252926
0.0323623
0.0253585
0.03251
0.00410321
0.00658233
0.00411519
0.00660542
0.0320835
0.0251975
0.0322362
0.0252652
0.00654004
0.00408405
0.00656379
0.00409651
0.00503464
0.00202995
0.00504842
0.00203053
0.00219189
0.00201475
0.00219642
0.0020184
0.00186351
0.00186344
0.00186317
0.0018631
0.00200529
0.00200529
0.00200889
0.00200889
0.00202887
0.00502674
0.00202945
0.00504047
0.00201468
0.00219122
0.00201833
0.00219575
0.0251851
0.0320958
0.0252527
0.0322487
0.00408216
0.00654179
0.0040946
0.00656556
0.031808
0.0250868
0.031965
0.0251559
0.00649833
0.00406211
0.00652264
0.004075
0.00501289
0.00202847
0.0050269
0.00202908
0.00218235
0.00200655
0.00218717
0.00201048
0.00186329
0.00186322
0.00186296
0.00186289
0.00199717
0.00199716
0.00200104
0.00200104
0.0020274
0.00500507
0.00202801
0.00501903
0.00200648
0.00218169
0.0020104
0.00218651
0.0250746
0.0318202
0.0251436
0.0319774
0.00406024
0.00650005
0.00407311
0.00652438
0.0315251
0.0249738
0.0316856
0.025044
0.0064557
0.00403939
0.00648043
0.00405265
0.00499081
0.00202695
0.00500497
0.00202758
0.00217223
0.00199779
0.00217733
0.00200199
0.00186303
0.00186296
0.00186272
0.00186265
0.00198848
0.00198847
0.00199262
0.00199262
0.00202589
0.00498307
0.00202652
0.00499718
0.00199771
0.00217158
0.00200191
0.00217668
0.0249617
0.0315372
0.0250318
0.0316977
0.00403754
0.0064574
0.00405079
0.00648214
0.0312371
0.0248592
0.0313998
0.0249301
0.00641246
0.00401599
0.00643745
0.00402957
0.00496852
0.00202538
0.00498277
0.00202603
0.00216155
0.00198847
0.00216692
0.00199294
0.00186274
0.00186267
0.00186244
0.00186237
0.00197924
0.00197923
0.00198365
0.00198365
0.00202434
0.00496086
0.00202498
0.00497506
0.0019884
0.00216091
0.00199287
0.00216628
0.0248472
0.031249
0.024918
0.0314118
0.00401416
0.00641413
0.00402774
0.00643913
0.0309462
0.024744
0.0311099
0.024815
0.00636895
0.00399202
0.00639401
0.00400587
0.00494619
0.00202378
0.00496043
0.00202445
0.00215033
0.00197862
0.00215596
0.00198335
0.00186239
0.00186233
0.00186213
0.00186206
0.00196947
0.00196946
0.00197413
0.00197413
0.00202275
0.00493861
0.00202341
0.0049528
0.00197855
0.00214969
0.00198328
0.00215532
0.0247321
0.030958
0.024803
0.0311218
0.00399022
0.00637059
0.00400405
0.00639567
0.030655
0.0246289
0.0308184
0.0246996
0.00632552
0.00396762
0.00635048
0.00398165
0.00492396
0.00202215
0.00493812
0.00202283
0.00213861
0.00196827
0.00214448
0.00197324
0.001862
0.00186194
0.00186176
0.00186169
0.00195919
0.00195918
0.0019641
0.00196409
0.00202112
0.00491647
0.0020218
0.00493058
0.0019682
0.00213798
0.00197316
0.00214384
0.0246171
0.0306666
0.0246878
0.0308302
0.00396585
0.00632713
0.00397986
0.0063521
0.030366
0.024515
0.0305279
0.0245849
0.00628255
0.00394293
0.00630721
0.00395708
0.00490202
0.00202048
0.004916
0.00202118
0.00212643
0.00195745
0.00213251
0.00196263
0.00186156
0.00186149
0.00186134
0.00186128
0.00194844
0.00194843
0.00195357
0.00195357
0.00201947
0.00489461
0.00202016
0.00490854
0.00195738
0.0021258
0.00196256
0.00213189
0.0245033
0.0303775
0.0245732
0.0305394
0.00394117
0.00628413
0.00395531
0.00630881
0.030082
0.0244033
0.0302409
0.0244719
0.00624041
0.00391809
0.00626459
0.00393228
0.00488054
0.00201879
0.00489425
0.0020195
0.00211383
0.00194619
0.00212011
0.00195158
0.00186106
0.00186099
0.00186087
0.0018608
0.00193726
0.00193725
0.00194259
0.00194259
0.00201779
0.00487321
0.00201849
0.00488687
0.00194612
0.00211322
0.00195151
0.00211949
0.0243917
0.0300933
0.0244603
0.0302523
0.00391636
0.00624197
0.00393053
0.00626616
0.0298055
0.0242947
0.0299602
0.0243615
0.00619948
0.00389326
0.00622298
0.00390741
0.00485967
0.00201708
0.00487305
0.0020178
0.00210088
0.00193454
0.00210733
0.00194011
0.00186049
0.00186043
0.00186034
0.00186027
0.00192568
0.00192568
0.0019312
0.0019312
0.00201609
0.00485242
0.0020168
0.00486575
0.00193447
0.00210027
0.00194004
0.00210671
0.0242832
0.0298167
0.02435
0.0299715
0.00389155
0.006201
0.00390569
0.00622452
0.029539
0.0241901
0.0296883
0.0242547
0.00616009
0.00386859
0.00618275
0.00388263
0.00483959
0.00201537
0.00485251
0.00201608
0.00208763
0.00192255
0.00209421
0.00192828
0.00185987
0.00185981
0.00185975
0.00185968
0.00191377
0.00191376
0.00191944
0.00191944
0.00201438
0.00483241
0.00201509
0.00484529
0.00192249
0.00208703
0.00192821
0.0020936
0.0241788
0.02955
0.0242434
0.0296994
0.00386691
0.00616159
0.00388093
0.00618427
0.0292852
0.0240908
0.0294276
0.0241525
0.00612257
0.00384424
0.00614424
0.00385808
0.00482046
0.00201365
0.00483285
0.00201436
0.00207414
0.00191028
0.00208082
0.00191613
0.00185919
0.00185912
0.00185909
0.00185903
0.00190157
0.00190156
0.00190737
0.00190737
0.00201268
0.00481336
0.00201338
0.0048257
0.00191021
0.00207355
0.00191607
0.00208022
0.0240796
0.0292961
0.0241412
0.0294386
0.00384257
0.00612405
0.0038564
0.00614573
0.0290462
0.0239974
0.029181
0.0240561
0.00608724
0.00382036
0.00610776
0.00383393
0.00480245
0.00201194
0.00481422
0.00201265
0.00206048
0.00189778
0.00206723
0.00190373
0.00185845
0.00185838
0.00185838
0.00185832
0.00188914
0.00188913
0.00189504
0.00189504
0.00201098
0.00479541
0.00201168
0.00480715
0.00189771
0.00205989
0.00190367
0.00206663
0.0239863
0.029057
0.0240449
0.0291918
0.00381871
0.00608869
0.00383227
0.00610922
0.0288236
0.023911
0.0289497
0.0239659
0.00605437
0.00379712
0.00607359
0.00381033
0.00478571
0.00201026
0.00479676
0.00201094
0.0020467
0.0018851
0.00205349
0.00189113
0.00185765
0.00185758
0.00185761
0.00185755
0.00187653
0.00187652
0.0018825
0.0018825
0.0020093
0.00477874
0.00200998
0.00478976
0.00188504
0.00204612
0.00189106
0.0020529
0.0239
0.0288343
0.0239548
0.0289605
0.00379549
0.0060558
0.00380869
0.00607503
0.0286139
0.0238208
0.0287355
0.0238819
0.00602399
0.00377409
0.00604198
0.00378739
0.00476935
0.00200857
0.00478049
0.00200926
0.00203286
0.00187231
0.00203967
0.00187838
0.0018568
0.00185673
0.00185679
0.00185672
0.0018638
0.00186379
0.00186982
0.00186982
0.00200762
0.00476244
0.00200831
0.00477354
0.00187224
0.00203228
0.00187831
0.00203909
0.0238099
0.0286244
0.0238709
0.0287462
0.00377248
0.0060254
0.00378576
0.0060434
0.0282536
0.0233208
0.0284981
0.0237247
0.00596961
0.00371905
0.00600969
0.00375971
0.00469481
0.00200448
0.00475401
0.00200724
0.00201659
0.00185895
0.00202556
0.00186557
0.00185601
0.00185595
0.00185592
0.00185586
0.00185056
0.00185055
0.00185709
0.00185708
0.00200356
0.00468818
0.0020063
0.00474717
0.00185888
0.00201602
0.00186551
0.00202498
0.0233103
0.0282636
0.0237139
0.0285085
0.00371749
0.00597095
0.00375811
0.00601108
0.0302347
0.0232776
0.0144567
0.0122031
0.029842
0.0228753
0.0145441
0.0119378
0.00455568
0.00224293
0.00352582
0.00283307
0.0044959
0.00224176
0.00350289
0.00283702
0.00212277
0.00212274
0.00281023
0.00281023
0.00212425
0.00212422
0.00281502
0.00281502
0.0022424
0.00455163
0.00283304
0.00352512
0.00224125
0.00449208
0.00283699
0.00350225
0.0232696
0.0302431
0.0122026
0.0144574
0.0228677
0.0298497
0.0119373
0.0145447
0.0400758
0.0300509
0.0375504
0.0283436
0.0392575
0.0294845
0.0368529
0.0278244
0.00604073
0.00208911
0.005648
0.00211103
0.00593742
0.00208445
0.00555797
0.00210727
0.00186459
0.00186449
0.00191468
0.00191461
0.00186488
0.00186478
0.00191509
0.00191502
0.00208754
0.00602923
0.0021098
0.0056389
0.00208295
0.00592655
0.00210609
0.00554936
0.0300338
0.0400938
0.0283296
0.0375652
0.0294679
0.0392737
0.0278112
0.0368669
0.0409671
0.0306409
0.0408255
0.030552
0.0400343
0.0300161
0.0399141
0.029928
0.0061701
0.00208586
0.0061531
0.00208685
0.00605088
0.00208023
0.00603532
0.00208134
0.00185342
0.00185331
0.00185443
0.00185433
0.00185368
0.00185358
0.0018547
0.0018546
0.00208416
0.00615754
0.00208518
0.00614077
0.0020786
0.00603892
0.00207974
0.0060237
0.0306223
0.0409869
0.0305338
0.0408448
0.0299989
0.0400532
0.0299107
0.0399315
0.040991
0.0306548
0.041019
0.0306759
0.040078
0.030052
0.0400996
0.0300677
0.00617093
0.00208582
0.00617652
0.00208582
0.00605636
0.00208049
0.00606086
0.00208035
0.00185337
0.00185327
0.00185289
0.00185279
0.00185366
0.00185356
0.00185317
0.00185307
0.00208413
0.00615841
0.00208412
0.00616396
0.00207887
0.00604451
0.00207872
0.00604892
0.0306363
0.0410109
0.0306573
0.041039
0.0300346
0.0400966
0.0300503
0.0401186
0.0409489
0.0306309
0.0409933
0.0306598
0.0400413
0.030034
0.0400835
0.0300598
0.0061627
0.00208464
0.00617063
0.00208564
0.00605035
0.00207945
0.00605742
0.00208036
0.00185332
0.00185322
0.00185294
0.00185284
0.00185361
0.00185351
0.00185323
0.00185313
0.00208295
0.00615016
0.00208394
0.0061581
0.00207783
0.00603853
0.00207874
0.00604558
0.0306124
0.0409689
0.0306413
0.0410134
0.0300166
0.04006
0.0300424
0.0401021
0.0408839
0.0305924
0.0409373
0.0306259
0.0399761
0.0299978
0.0400285
0.0300295
0.00615159
0.00208405
0.00616051
0.0020842
0.0060399
0.00207889
0.00604841
0.00207901
0.00185331
0.00185321
0.00185287
0.00185277
0.00185361
0.00185351
0.00185317
0.00185307
0.00208237
0.0061391
0.0020825
0.00614797
0.00207728
0.00602807
0.00207739
0.00603657
0.0305739
0.0409037
0.0306073
0.0409572
0.0299804
0.0399947
0.0300121
0.0400471
0.0408071
0.0305493
0.0408658
0.0305845
0.0398985
0.0299547
0.0399565
0.0299893
0.00613966
0.00208273
0.00614884
0.00208377
0.00602799
0.00207756
0.00603705
0.00207861
0.00185326
0.00185316
0.00185288
0.00185278
0.00185356
0.00185346
0.00185318
0.00185308
0.00208104
0.00612717
0.00208209
0.00613635
0.00207595
0.0060162
0.00207699
0.00602521
0.0305307
0.0408268
0.030566
0.0408857
0.0299374
0.0399171
0.0299719
0.039975
0.0407223
0.0305036
0.0407853
0.0305403
0.0398134
0.0299083
0.0398753
0.0299445
0.00612748
0.00208213
0.00613683
0.00208227
0.00601563
0.00207695
0.00602488
0.00207709
0.00185326
0.00185316
0.00185281
0.00185271
0.00185356
0.00185346
0.00185311
0.00185301
0.00208046
0.00611503
0.00208059
0.00612433
0.00207535
0.00600389
0.00207548
0.00601311
0.0304851
0.040742
0.0305217
0.040805
0.029891
0.039832
0.0299272
0.039894
0.0406303
0.0304557
0.0406972
0.0304936
0.0397211
0.0298596
0.0397871
0.029897
0.00611502
0.00208082
0.00612453
0.00208185
0.00600297
0.00207562
0.00601241
0.00207667
0.00185321
0.00185311
0.00185282
0.00185272
0.00185351
0.00185342
0.00185313
0.00185303
0.00207915
0.00610258
0.00208018
0.00611208
0.00207402
0.00599126
0.00207506
0.00600068
0.0304372
0.0406499
0.030475
0.0407169
0.0298423
0.0397396
0.0298798
0.0398057
0.0405309
0.0304056
0.0406021
0.0304448
0.0396209
0.0298083
0.0396915
0.0298474
0.0061023
0.00208021
0.00611197
0.00208036
0.00599004
0.00207501
0.00599964
0.00207514
0.00185321
0.00185311
0.00185276
0.00185266
0.00185352
0.00185342
0.00185307
0.00185297
0.00207854
0.00608987
0.00207868
0.00609952
0.00207341
0.00597831
0.00207354
0.00598792
0.030387
0.0405504
0.0304262
0.0406217
0.029791
0.0396392
0.0298301
0.0397099
0.040423
0.0303529
0.0404992
0.0303936
0.039512
0.0297536
0.0395876
0.0297947
0.00608918
0.0020789
0.00609911
0.00207993
0.00597667
0.00207369
0.00598656
0.00207472
0.00185316
0.00185306
0.00185277
0.00185267
0.00185348
0.00185338
0.00185308
0.00185298
0.00207724
0.00607679
0.00207827
0.00608668
0.00207209
0.00596496
0.00207312
0.00597483
0.0303344
0.0404425
0.030375
0.0405186
0.0297362
0.0395301
0.0297773
0.0396059
0.0403058
0.0302974
0.0403874
0.0303397
0.0393937
0.0296954
0.0394749
0.0297384
0.00607569
0.00207826
0.00608583
0.00207843
0.00596292
0.00207305
0.00597303
0.0020732
0.00185317
0.00185306
0.00185271
0.00185261
0.00185348
0.00185338
0.00185303
0.00185293
0.00207661
0.00606335
0.00207676
0.00607345
0.00207147
0.00595125
0.00207161
0.00596133
0.0302789
0.0403252
0.0303212
0.0404069
0.0296781
0.0394118
0.029721
0.039493
0.0401783
0.0302387
0.040266
0.0302829
0.039265
0.0296342
0.0393524
0.029679
0.00606171
0.00207694
0.00607216
0.00207797
0.00594866
0.00207174
0.00595909
0.00207275
0.00185313
0.00185303
0.00185273
0.00185263
0.00185345
0.00185335
0.00185305
0.00185295
0.00207529
0.00604942
0.00207632
0.00605984
0.00207016
0.00593705
0.00207117
0.00594744
0.0302203
0.0401977
0.0302645
0.0402854
0.029617
0.039283
0.0296617
0.0393705
0.04004
0.0301769
0.0401341
0.0302229
0.0391252
0.0295698
0.0392191
0.0296164
0.00604733
0.00207629
0.006058
0.00207646
0.00593398
0.00207116
0.00594464
0.00207125
0.00185314
0.00185304
0.00185268
0.00185258
0.00185348
0.00185338
0.00185301
0.00185291
0.00207465
0.00603509
0.00207481
0.00604572
0.0020696
0.00592242
0.00206968
0.00593304
0.0301586
0.0400593
0.0302046
0.0401534
0.0295526
0.0391432
0.0295992
0.0392371
0.0398903
0.0301118
0.0399911
0.0301598
0.0389736
0.0295018
0.0390743
0.0295505
0.00603255
0.00207561
0.00604346
0.00207588
0.00591882
0.00207046
0.00592977
0.00207078
0.00185317
0.00185307
0.0018527
0.0018526
0.00185351
0.00185342
0.00185305
0.00185295
0.00207398
0.00602036
0.00207424
0.00603123
0.0020689
0.00590731
0.00206922
0.00591822
0.0300936
0.0399095
0.0301415
0.0400104
0.0294847
0.0389915
0.0295333
0.0390922
0.0397286
0.0300434
0.0398363
0.0300933
0.0388099
0.0294303
0.038917
0.029481
0.00601733
0.0020748
0.0060285
0.00207515
0.00590316
0.00206953
0.0059144
0.00206993
0.00185319
0.00185309
0.00185273
0.00185263
0.00185353
0.00185343
0.00185307
0.00185298
0.00207317
0.00600519
0.00207352
0.00601632
0.00206798
0.0058917
0.00206837
0.00590291
0.0300252
0.0397477
0.030075
0.0398555
0.0294132
0.0388277
0.0294639
0.0389348
0.0395543
0.0299714
0.0396686
0.0300233
0.0386331
0.0293549
0.038747
0.0294078
0.00600164
0.00207385
0.00601308
0.00207426
0.00588696
0.00206853
0.00589852
0.00206894
0.0018532
0.0018531
0.00185275
0.00185265
0.00185354
0.00185344
0.00185309
0.00185299
0.00207223
0.00598956
0.00207263
0.00600096
0.00206698
0.00587556
0.00206739
0.00588708
0.0299533
0.0395733
0.0300051
0.0396877
0.0293379
0.0386509
0.0293908
0.0387648
0.0393666
0.0298956
0.0394879
0.0299496
0.0384428
0.0292755
0.0385636
0.0293307
0.00598546
0.00207286
0.00599718
0.00207328
0.00587021
0.00206751
0.00588209
0.00206793
0.00185321
0.00185311
0.00185276
0.00185266
0.00185356
0.00185346
0.0018531
0.001853
0.00207125
0.00597344
0.00207166
0.00598512
0.00206597
0.00585887
0.00206638
0.00587071
0.0298775
0.0393856
0.0299315
0.0395069
0.0292586
0.0384604
0.0293137
0.0385813
0.0391651
0.0298157
0.0392934
0.029872
0.0382382
0.0291919
0.0383663
0.0292494
0.00596877
0.00207187
0.00598079
0.00207229
0.00585285
0.00206647
0.00586509
0.0020669
0.00185323
0.00185313
0.00185277
0.00185267
0.00185358
0.00185349
0.00185312
0.00185303
0.00207027
0.00595681
0.00207068
0.00596879
0.00206494
0.00584158
0.00206537
0.00585377
0.0297978
0.0391839
0.029854
0.0393123
0.029175
0.0382557
0.0292325
0.0383839
0.0389495
0.0297319
0.039085
0.0297904
0.0380195
0.029104
0.0381548
0.0291639
0.00595159
0.00207088
0.0059639
0.00207129
0.00583491
0.00206543
0.00584749
0.00206586
0.00185326
0.00185317
0.0018528
0.0018527
0.00185362
0.00185353
0.00185315
0.00185306
0.00206928
0.0059397
0.00206969
0.00595196
0.00206391
0.0058237
0.00206434
0.00583623
0.029714
0.0389682
0.0297724
0.0391037
0.0290872
0.0380368
0.0291471
0.0381722
0.0387197
0.0296441
0.0388624
0.0297048
0.0377864
0.0290118
0.0379289
0.0290742
0.00593391
0.00206989
0.00594651
0.0020703
0.00581637
0.00206439
0.00582929
0.00206482
0.00185331
0.00185321
0.00185284
0.00185274
0.00185367
0.00185358
0.00185319
0.0018531
0.0020683
0.0059221
0.00206871
0.00593464
0.00206288
0.00580524
0.00206331
0.00581811
0.0296263
0.0387383
0.0296869
0.038881
0.0289952
0.0378036
0.0290574
0.0379463
0.0384761
0.0295525
0.0386256
0.0296152
0.0375392
0.0289155
0.0376888
0.0289802
0.00591573
0.0020689
0.00592862
0.00206931
0.00579727
0.00206334
0.00581052
0.00206377
0.00185337
0.00185327
0.00185289
0.00185279
0.00185373
0.00185364
0.00185325
0.00185316
0.00206732
0.00590399
0.00206773
0.00591683
0.00206184
0.00578621
0.00206227
0.00579942
0.0295349
0.0384945
0.0295974
0.0386441
0.028899
0.0375563
0.0289635
0.037706
0.0382206
0.0294584
0.0383758
0.0295225
0.0372786
0.0288154
0.0374348
0.0288821
0.00589726
0.00206792
0.00591029
0.00206833
0.00577765
0.00206229
0.0057912
0.00206272
0.00185345
0.00185335
0.00185296
0.00185286
0.00185382
0.00185372
0.00185332
0.00185323
0.00206635
0.0058856
0.00206675
0.00589858
0.0020608
0.00576667
0.00206123
0.00578017
0.0294408
0.0382388
0.0295049
0.0383942
0.0287989
0.0372956
0.0288656
0.0374519
0.0379524
0.0293604
0.0381143
0.0294268
0.0370055
0.0287116
0.0371679
0.0287804
0.00587837
0.00206695
0.00589169
0.00206736
0.00575754
0.00206124
0.00577138
0.00206168
0.00185354
0.00185345
0.00185304
0.00185295
0.00185392
0.00185382
0.00185341
0.00185332
0.0020654
0.00586679
0.00206579
0.00588006
0.00205977
0.00574665
0.00206019
0.00576043
0.029343
0.0379705
0.0294093
0.0381325
0.0286952
0.0370223
0.028764
0.0371848
0.0376711
0.0292582
0.0378393
0.0293269
0.0367206
0.0286043
0.0368887
0.028675
0.0058589
0.00206599
0.00587255
0.00206639
0.00573699
0.00206021
0.00575108
0.00206064
0.00185366
0.00185357
0.00185315
0.00185306
0.00185404
0.00185394
0.00185352
0.00185343
0.00206445
0.00584741
0.00206484
0.005861
0.00205875
0.00572618
0.00205917
0.00574022
0.0292409
0.037689
0.0293095
0.0378574
0.0285881
0.0367372
0.0286587
0.0369054
0.0373787
0.0291528
0.0375522
0.0292232
0.0364255
0.0284942
0.0365984
0.0285663
0.00583905
0.00206505
0.00585291
0.00206544
0.00571609
0.0020592
0.00573038
0.00205962
0.00185381
0.00185371
0.00185328
0.00185319
0.00185418
0.00185408
0.00185365
0.00185356
0.00206352
0.00582765
0.0020639
0.00584145
0.00205774
0.00570538
0.00205815
0.00571961
0.0291356
0.0373964
0.0292059
0.03757
0.0284781
0.0364419
0.0285502
0.036615
0.0370778
0.0290452
0.0372551
0.0291167
0.0361222
0.0283819
0.0362989
0.0284551
0.00581898
0.00206413
0.00583297
0.00206451
0.00569497
0.00205821
0.00570939
0.00205861
0.00185397
0.00185388
0.00185344
0.00185334
0.00185434
0.00185425
0.0018538
0.00185371
0.00206261
0.00580768
0.00206298
0.0058216
0.00205676
0.00568436
0.00205716
0.00569871
0.0290281
0.0370954
0.0290996
0.0372728
0.0283659
0.0361385
0.0284391
0.0363153
0.0367709
0.0289361
0.0369509
0.0290084
0.035813
0.0282681
0.0359923
0.028342
0.00579882
0.00206325
0.00581286
0.00206361
0.00567375
0.00205724
0.00568822
0.00205763
0.00185417
0.00185407
0.00185362
0.00185352
0.00185452
0.00185443
0.00185398
0.00185389
0.00206173
0.0057876
0.00206209
0.00580159
0.00205581
0.00566323
0.00205619
0.00567764
0.0289192
0.0367883
0.0289914
0.0369684
0.0282523
0.0358291
0.0283261
0.0360085
0.0364601
0.0288262
0.0366416
0.0288988
0.0355003
0.0281537
0.0356809
0.0282278
0.00577866
0.00206239
0.0057927
0.00206275
0.00565254
0.0020563
0.005667
0.00205668
0.00185438
0.00185428
0.00185382
0.00185373
0.00185472
0.00185463
0.00185417
0.00185408
0.00206088
0.00576754
0.00206122
0.00578152
0.00205488
0.00564212
0.00205525
0.00565651
0.0288094
0.0364774
0.028882
0.036659
0.0281381
0.0355162
0.0282121
0.035697
0.0361479
0.0287162
0.0363297
0.0287888
0.0351866
0.0280395
0.0353673
0.0281133
0.00575861
0.00206156
0.0057726
0.0020619
0.0056315
0.00205539
0.00564586
0.00205576
0.00185461
0.00185452
0.00185404
0.00185395
0.00185493
0.00185484
0.00185437
0.00185428
0.00206007
0.00574759
0.00206039
0.00576152
0.00205399
0.00562117
0.00205434
0.00563547
0.0286996
0.0361649
0.0287721
0.0363468
0.028024
0.0352024
0.0280977
0.0353831
0.035837
0.028607
0.0360176
0.028679