/*--------------------------------*- C++ -*----------------------------------*\
  =========                 |
  \\      /  F ield         | OpenFOAM: The Open Source CFD Toolbox
   \\    /   O peration     | Website:  https://openfoam.org
    \\  /    A nd           | Version:  9
     \\/     M anipulation  |
\*---------------------------------------------------------------------------*/
FoamFile
{
    format      ascii;
    class       surfaceScalarField;
    location    "2.55";
    object      phi;
}
// * * * * * * * * * * * * * * * * * * * * * * * * * * * * * * * * * * * * * //

dimensions      [0 3 -1 0 0 0 0];

internalField   nonuniform List<scalar> 
104044
(
4.92079e-07
-6.60206e-05
-1.3482e-06
6.48699e-05
2.0068e-06
-4.54918e-05
-2.33914e-06
-1.84391e-07
4.79576e-05
5.49793e-07
2.70799e-07
-2.33687e-06
2.57027e-06
-1.82318e-06
-1.06366e-07
1.32139e-07
-3.40867e-09
-7.21415e-05
7.07967e-05
-4.09959e-05
1.75371e-08
3.86358e-05
2.87659e-08
-1.49155e-08
-9.78737e-09
-5.11815e-05
-2.55711e-06
5.16697e-05
1.89429e-06
-5.35323e-05
-9.49979e-07
-2.06606e-10
5.38997e-05
5.72956e-07
-5.37517e-09
-2.00999e-06
1.16408e-06
-1.11997e-06
9.46836e-11
3.52007e-07
-5.81638e-09
-5.44896e-05
5.19559e-05
-5.62117e-05
-3.54733e-09
5.52594e-05
-9.20502e-09
-1.55305e-09
4.13541e-12
-5.43046e-05
-4.99373e-07
5.47856e-05
1.81935e-08
-5.43045e-05
-4.99397e-07
2.18769e-10
5.47855e-05
1.81952e-08
2.03829e-12
-1.03379e-06
1.95768e-07
-1.03373e-06
-9.12876e-11
1.957e-07
8.77741e-12
-5.54086e-05
5.49057e-05
-5.54088e-05
3.55467e-09
5.49058e-05
2.93904e-12
1.56015e-09
9.80403e-09
-5.35321e-05
-9.50504e-07
5.38994e-05
5.73579e-07
-5.11815e-05
-2.55755e-06
1.8447e-07
5.16696e-05
1.89482e-06
5.38084e-09
-1.12017e-06
3.52283e-07
-2.01051e-06
1.06421e-07
1.16462e-06
5.82896e-09
-5.62115e-05
5.52587e-05
-5.44876e-05
-1.75503e-08
5.19534e-05
9.23258e-09
1.48916e-08
-4.92211e-07
-4.54921e-05
-2.33803e-06
4.79576e-05
5.49199e-07
-6.602e-05
-1.34927e-06
6.48694e-05
2.00772e-06
-2.70893e-07
-1.82131e-06
1.30686e-07
-2.33815e-06
2.57125e-06
3.3874e-09
-4.0992e-05
3.8633e-05
-7.21454e-05
7.07995e-05
-2.87495e-08
3.80981e-07
-6.35976e-05
-1.91718e-06
6.24425e-05
2.69133e-06
-4.95191e-05
1.10965e-06
-1.05806e-07
5.04257e-05
-1.52947e-06
4.55625e-07
-1.64115e-06
2.45783e-06
-4.61753e-07
-1.52514e-07
-4.91658e-07
-3.20583e-07
-6.92998e-05
6.77032e-05
-3.79251e-05
2.05192e-07
3.8509e-05
-1.44249e-07
1.04686e-07
-1.48964e-08
-5.20689e-05
-1.90977e-06
5.21569e-05
1.73081e-06
-5.40864e-05
-1.19633e-06
-3.26653e-09
5.41012e-05
1.16985e-06
-1.14322e-08
-2.56563e-06
2.02538e-06
-1.2265e-06
-1.53859e-09
1.02996e-06
-5.91803e-09
-4.95009e-05
4.78023e-05
-5.40314e-05
-6.39884e-09
5.28355e-05
-5.99352e-09
-4.42807e-09
-7.10762e-12
-5.50786e-05
-5.01112e-07
5.50395e-05
5.3693e-07
-5.50784e-05
-5.01281e-07
3.25005e-09
5.50392e-05
5.3715e-07
6.8632e-12
-4.33723e-07
1.39129e-07
-4.33952e-07
1.55833e-09
1.39566e-07
1.12838e-11
-5.44675e-05
5.396e-05
-5.44675e-05
6.42594e-09
5.39598e-05
1.23852e-11
4.44349e-09
1.50223e-08
-5.40859e-05
-1.19642e-06
5.41007e-05
1.1699e-06
-5.20685e-05
-1.90952e-06
1.05832e-07
5.21564e-05
1.73084e-06
1.14703e-08
-1.22679e-06
1.03037e-06
-2.5655e-06
1.52569e-07
2.02545e-06
5.95204e-09
-5.40303e-05
5.28344e-05
-4.94987e-05
-2.0526e-07
4.78004e-05
6.01605e-09
-1.04733e-07
-3.81079e-07
-4.95188e-05
1.1104e-06
5.04253e-05
-1.53002e-06
-6.3597e-05
-1.91785e-06
6.24417e-05
2.69202e-06
-4.55724e-07
-4.60656e-07
-4.92251e-07
-1.64201e-06
2.45866e-06
3.20592e-07
-3.79234e-05
3.85079e-05
-6.93017e-05
6.77045e-05
1.44249e-07
1.71012e-07
-6.14428e-05
-2.19053e-06
6.05736e-05
2.88873e-06
-5.10598e-05
2.44983e-06
-1.62107e-09
5.1569e-05
-2.78643e-06
2.75966e-07
-2.06354e-06
2.78727e-06
1.94931e-06
-5.09642e-08
-2.25646e-06
-6.83044e-07
-6.61401e-05
6.46326e-05
-3.96576e-05
3.88876e-07
4.10355e-05
-5.00477e-07
3.00263e-07
-3.10359e-09
-5.21151e-05
-8.99249e-07
5.20687e-05
9.47178e-07
-5.39729e-05
-7.15629e-07
-1.22432e-08
5.37816e-05
9.16131e-07
-1.11964e-08
-1.29673e-06
1.29876e-06
-9.4716e-07
-8.1954e-09
1.07247e-06
1.02159e-08
-4.6806e-05
4.62854e-05
-5.1897e-05
-9.74282e-09
5.12013e-05
-1.57493e-10
-8.81238e-09
1.37257e-11
-5.4886e-05
-5.08106e-07
5.46912e-05
6.90616e-07
-5.48857e-05
-5.0815e-07
1.2272e-08
5.46909e-05
6.90646e-07
1.80322e-11
-5.58741e-07
7.04103e-07
-5.5884e-07
8.20004e-09
7.04227e-07
1.27907e-11
-5.33925e-05
5.28746e-05
-5.33921e-05
9.77859e-09
5.28742e-05
1.25613e-11
8.83992e-09
3.1234e-09
-5.39723e-05
-7.15636e-07
5.3781e-05
9.1615e-07
-5.21146e-05
-8.99094e-07
1.62925e-09
5.20682e-05
9.4701e-07
1.11743e-08
-9.47172e-07
1.07255e-06
-1.29651e-06
5.09824e-08
1.29852e-06
-1.01983e-08
-5.18959e-05
5.12002e-05
-4.68044e-05
-3.88971e-07
4.6284e-05
1.80029e-10
-3.00347e-07
-1.71099e-07
-5.10594e-05
2.45029e-06
5.15686e-05
-2.7868e-06
-6.1442e-05
-2.19094e-06
6.05727e-05
2.88913e-06
-2.76045e-07
1.94992e-06
-2.25697e-06
-2.06403e-06
2.78776e-06
6.83049e-07
-3.9657e-05
4.10353e-05
-6.61409e-05
6.4633e-05
5.00488e-07
-2.83794e-08
-5.98289e-05
-2.27776e-06
5.91754e-05
2.95956e-06
-5.19984e-05
2.8162e-06
9.39979e-08
5.23675e-05
-3.30772e-06
6.6597e-08
-2.22486e-06
2.90299e-06
2.67253e-06
4.3516e-08
-3.07882e-06
-9.89543e-07
-6.32446e-05
6.19563e-05
-4.24169e-05
5.13672e-07
4.37299e-05
-8.3679e-07
4.54306e-07
1.99982e-08
-5.20647e-05
-4.31516e-07
5.21174e-05
4.52835e-07
-5.35951e-05
-3.95495e-07
-8.79999e-09
5.34383e-05
5.81135e-07
7.52622e-09
-6.15731e-07
6.55689e-07
-5.22037e-07
-1.15696e-08
7.27598e-07
3.92984e-08
-4.61003e-05
4.61432e-05
-5.07117e-05
-8.17118e-09
5.03637e-05
2.36248e-08
-8.81816e-09
1.32996e-11
-5.44828e-05
-2.74688e-07
5.42895e-05
4.59133e-07
-5.44825e-05
-2.74718e-07
8.82385e-09
5.42893e-05
4.59146e-07
1.40544e-11
-3.73951e-07
5.70781e-07
-3.73991e-07
1.16052e-08
5.70798e-07
1.28709e-11
-5.24918e-05
5.22089e-05
-5.24914e-05
8.19571e-09
5.22085e-05
1.30381e-11
8.84202e-09
-1.99841e-08
-5.35945e-05
-3.95503e-07
5.34377e-05
5.81125e-07
-5.20642e-05
-4.31449e-07
-9.39996e-08
5.21169e-05
4.52738e-07
-7.51201e-09
-5.22045e-07
7.27598e-07
-6.15638e-07
-4.34327e-08
6.55548e-07
-3.92851e-08
-5.07106e-05
5.03626e-05
-4.60992e-05
-5.13773e-07
4.61422e-05
-2.36098e-08
-4.54404e-07
2.82842e-08
-5.1998e-05
2.81641e-06
5.23672e-05
-3.30783e-06
-5.98279e-05
-2.27802e-06
5.91744e-05
2.95977e-06
-6.6687e-08
2.67288e-06
-3.07905e-06
-2.22516e-06
2.90327e-06
9.8952e-07
-4.2417e-05
4.37301e-05
-6.32446e-05
6.19562e-05
8.36783e-07
-1.91309e-07
-5.86076e-05
-2.28098e-06
5.81025e-05
2.97741e-06
-5.26884e-05
2.8565e-06
1.35733e-07
5.29668e-05
-3.46195e-06
-1.13587e-07
-2.26092e-06
2.94238e-06
2.82782e-06
1.18479e-07
-3.38077e-06
-1.22148e-06
-6.0799e-05
5.97395e-05
-4.49055e-05
5.82678e-07
4.59578e-05
-1.10358e-06
5.4871e-07
5.12747e-08
-5.22063e-05
-2.42672e-07
5.23196e-05
2.13822e-07
-5.33211e-05
-2.44091e-07
-3.39008e-09
5.32364e-05
3.83385e-07
3.36461e-08
-3.08502e-07
3.04483e-07
-3.02574e-07
-6.5459e-09
4.59948e-07
7.07858e-08
-4.63287e-05
4.65979e-05
-5.0122e-05
-3.34876e-09
4.99521e-05
5.47042e-08
-6.18182e-09
1.10747e-11
-5.41249e-05
-1.75926e-07
5.39856e-05
3.11811e-07
-5.41246e-05
-1.75942e-07
3.41196e-09
5.39854e-05
3.11817e-07
1.2201e-11
-2.08747e-07
3.66833e-07
-2.08769e-07
6.56932e-09
3.66842e-07
1.04992e-11
-5.1994e-05
5.18147e-05
-5.19935e-05
3.36976e-09
5.18142e-05
1.20054e-11
6.20553e-09
-5.12649e-08
-5.33205e-05
-2.44081e-07
5.32359e-05
3.83358e-07
-5.22058e-05
-2.42649e-07
-1.35745e-07
5.23191e-05
2.13797e-07
-3.36333e-08
-3.02575e-07
4.5993e-07
-3.08455e-07
-1.18487e-07
3.04422e-07
-7.07796e-08
-5.01209e-05
4.9951e-05
-4.63279e-05
-5.82779e-07
4.65973e-05
-5.46933e-08
-5.4881e-07
1.91203e-07
-5.2688e-05
2.85652e-06
5.29664e-05
-3.46185e-06
-5.86065e-05
-2.2811e-06
5.81014e-05
2.97745e-06
1.13488e-07
2.82793e-06
-3.38078e-06
-2.26108e-06
2.94248e-06
1.22142e-06
-4.49057e-05
4.5958e-05
-6.07986e-05
5.97389e-05
1.10354e-06
-3.16775e-07
-5.76561e-05
-2.25287e-06
5.72521e-05
2.97369e-06
-5.32005e-05
2.78747e-06
1.48492e-07
5.33938e-05
-3.44605e-06
-2.55849e-07
-2.24439e-06
2.9466e-06
2.79966e-06
1.43397e-07
-3.43259e-06
-1.38618e-06
-5.87933e-05
5.79266e-05
-4.68604e-05
6.2206e-07
4.76396e-05
-1.2982e-06
5.98855e-07
9.80734e-08
-5.24357e-05
-2.06601e-07
5.25529e-05
1.3987e-07
-5.31842e-05
-1.71141e-07
4.97313e-09
5.31488e-05
2.99578e-07
7.82913e-08
-2.11297e-07
1.60245e-07
-1.98479e-07
6.26288e-10
3.28422e-07
9.86164e-08
-4.6901e-05
4.72178e-05
-4.98378e-05
4.32748e-09
4.9761e-05
8.44987e-08
2.61564e-10
1.24519e-11
-5.38697e-05
-1.53147e-07
5.3769e-05
2.58796e-07
-5.38695e-05
-1.53142e-07
-4.95765e-09
5.37688e-05
2.58787e-07
8.5219e-12
-1.57774e-07
2.74258e-07
-1.57784e-07
-6.08554e-10
2.74258e-07
3.74314e-11
-5.16572e-05
5.15083e-05
-5.16567e-05
-4.29354e-09
5.15079e-05
8.67255e-12
-2.4825e-10
-9.81004e-08
-5.31837e-05
-1.711e-07
5.31484e-05
2.99539e-07
-5.24353e-05
-2.06629e-07
-1.48513e-07
5.25524e-05
1.39893e-07
-7.82901e-08
-1.98456e-07
3.28389e-07
-2.11288e-07
-1.43414e-07
1.60242e-07
-9.87904e-08
-4.98368e-05
4.97602e-05
-4.69004e-05
-6.22126e-07
4.72171e-05
-8.45152e-08
-5.98925e-07
3.16657e-07
-5.32001e-05
2.78733e-06
5.33934e-05
-3.44579e-06
-5.7655e-05
-2.25289e-06
5.7251e-05
2.97359e-06
2.55737e-07
2.79961e-06
-3.43241e-06
-2.24442e-06
2.94653e-06
1.38609e-06
-4.68606e-05
4.76397e-05
-5.87926e-05
5.79258e-05
1.29812e-06
-4.09723e-07
-5.68877e-05
-2.20924e-06
5.65516e-05
2.95512e-06
-5.35481e-05
2.67761e-06
1.46927e-07
5.36658e-05
-3.35198e-06
-3.63128e-07
-2.20719e-06
2.93463e-06
2.70535e-06
1.46388e-07
-3.36914e-06
-1.49595e-06
-5.71514e-05
5.64381e-05
-4.82865e-05
6.38062e-07
4.88301e-05
-1.43196e-06
6.26479e-07
1.28414e-07
-5.26605e-05
-2.30007e-07
5.27567e-05
1.52281e-07
-5.3124e-05
-1.39515e-07
1.3906e-08
5.31037e-05
2.74371e-07
1.13067e-07
-2.12121e-07
1.378e-07
-1.50726e-07
9.37444e-09
2.79231e-07
1.14158e-07
-4.75237e-05
4.78176e-05
-4.97099e-05
1.25462e-08
4.9672e-05
1.0845e-07
8.83626e-09
-9.59339e-12
-5.36801e-05
-1.53904e-07
5.35968e-05
2.5117e-07
-5.36799e-05
-1.53937e-07
-1.39086e-08
5.35966e-05
2.51158e-07
4.25275e-11
-1.50754e-07
2.48983e-07
-1.50691e-07
-9.31619e-09
2.48958e-07
-1.94046e-10
-5.13662e-05
5.1225e-05
-5.13655e-05
-1.3128e-08
5.12245e-05
2.61787e-10
-8.10738e-09
-1.28275e-07
-5.31236e-05
-1.39706e-07
5.31033e-05
2.74349e-07
-5.26602e-05
-2.29778e-07
-1.46949e-07
5.27563e-05
1.52301e-07
-1.13217e-07
-1.50436e-07
2.79176e-07
-2.12422e-07
-1.46366e-07
1.37837e-07
-1.1567e-07
-4.97085e-05
4.96714e-05
-4.75237e-05
-6.38636e-07
4.78169e-05
-1.06855e-07
-6.25933e-07
4.09568e-07
-5.35477e-05
2.6775e-06
5.36653e-05
-3.35165e-06
-5.68867e-05
-2.20911e-06
5.65505e-05
2.95485e-06
3.63035e-07
2.7051e-06
-3.36881e-06
-2.20715e-06
2.93443e-06
1.49564e-06
-4.82868e-05
4.883e-05
-5.71507e-05
5.64372e-05
1.43203e-06
-4.76607e-07
-5.62418e-05
-2.15798e-06
5.59507e-05
2.92574e-06
-5.37484e-05
2.55607e-06
1.46722e-07
5.37983e-05
-3.22932e-06
-4.41645e-07
-2.16067e-06
2.91206e-06
2.5896e-06
1.46149e-07
-3.25993e-06
-1.56457e-06
-5.5797e-05
5.52036e-05
-4.92663e-05
6.38768e-07
4.9619e-05
-1.51954e-06
6.33911e-07
1.50192e-07
-5.28379e-05
-2.70672e-07
5.29028e-05
2.0224e-07
-5.30839e-05
-1.27215e-07
2.09808e-08
5.30618e-05
2.78499e-07
1.38892e-07
-2.47191e-07
1.73305e-07
-1.30552e-07
1.80914e-08
2.7113e-07
1.24047e-07
-4.80851e-05
4.83292e-05
-4.96436e-05
2.09739e-08
4.96195e-05
1.19216e-07
1.69892e-08
-4.79524e-11
-5.35177e-05
-1.58831e-07
5.34383e-05
2.59294e-07
-5.35175e-05
-1.58799e-07
-2.11654e-08
5.34381e-05
2.59296e-07
2.21937e-11
-1.54774e-07
2.51891e-07
-1.54746e-07
-1.80275e-08
2.51871e-07
-8.79248e-13
-5.10871e-05
5.09493e-05
-5.10866e-05
-2.10597e-08
5.09488e-05
8.4271e-11
-1.67212e-08
-1.5021e-07
-5.30835e-05
-1.27263e-07
5.30614e-05
2.78418e-07
-5.28375e-05
-2.70661e-07
-1.46733e-07
5.29024e-05
2.02265e-07
-1.38902e-07
-1.30442e-07
2.7108e-07
-2.47287e-07
-1.4613e-07
1.73332e-07
-1.2444e-07
-4.96427e-05
4.96188e-05
-4.80849e-05
-6.38895e-07
4.83286e-05
-1.1852e-07
-6.33734e-07
4.76454e-07
-5.37478e-05
2.55586e-06
5.37977e-05
-3.22894e-06
-5.62408e-05
-2.15781e-06
5.59497e-05
2.92537e-06
4.41516e-07
2.58939e-06
-3.25956e-06
-2.1605e-06
2.91172e-06
1.56437e-06
-4.92663e-05
4.96188e-05
-5.57962e-05
5.52027e-05
1.51944e-06
-5.23049e-07
-5.56771e-05
-2.10225e-06
5.54154e-05
2.887e-06
-5.38201e-05
2.43701e-06
1.4204e-07
5.38142e-05
-3.09622e-06
-4.97002e-07
-2.1066e-06
2.87716e-06
2.46872e-06
1.43345e-07
-3.13092e-06
-1.60232e-06
-5.46676e-05
5.41677e-05
-4.98882e-05
6.2927e-07
5.00936e-05
-1.57063e-06
6.28952e-07
1.64832e-07
-5.29496e-05
-3.15738e-07
5.29785e-05
2.64e-07
-5.30354e-05
-1.26386e-07
2.59805e-08
5.30021e-05
2.98501e-07
1.56673e-07
-2.90392e-07
2.30328e-07
-1.24474e-07
2.33539e-08
2.84248e-07
1.2875e-07
-4.85408e-05
4.87256e-05
-4.95975e-05
2.49278e-08
4.95749e-05
1.26909e-07
2.44594e-08
2.20509e-11
-5.33584e-05
-1.62581e-07
5.3275e-05
2.71952e-07
-5.33582e-05
-1.6284e-07
-2.56927e-08
5.32749e-05
2.71939e-07
5.79613e-11
-1.59418e-07
2.62586e-07
-1.59317e-07
-2.32977e-08
2.62563e-07
-7.37516e-10
-5.0814e-05
5.06771e-05
-5.08132e-05
-2.7643e-08
5.06773e-05
2.86251e-10
-2.34023e-08
-1.64615e-07
-5.3035e-05
-1.26325e-07
5.30018e-05
2.98458e-07
-5.29492e-05
-3.1536e-07
-1.42059e-07
5.2978e-05
2.64016e-07
-1.56681e-07
-1.24375e-07
2.84191e-07
-2.9056e-07
-1.43302e-07
2.30367e-07
-1.31444e-07
-4.95967e-05
4.95742e-05
-4.8541e-05
-6.30197e-07
4.87244e-05
-1.25656e-07
-6.2859e-07
5.22856e-07
-5.38196e-05
2.43692e-06
5.38136e-05
-3.09583e-06
-5.56762e-05
-2.10198e-06
5.54145e-05
2.88655e-06
4.96868e-07
2.46847e-06
-3.13052e-06
-2.10637e-06
2.87673e-06
1.60185e-06
-4.98882e-05
5.0093e-05
-5.46669e-05
5.41668e-05
1.57056e-06
-5.54099e-07
-5.51647e-05
-2.04862e-06
5.4921e-05
2.84642e-06
-5.37855e-05
2.3285e-06
1.35347e-07
5.37329e-05
-2.96537e-06
-5.35084e-07
-2.05288e-06
2.83871e-06
2.35693e-06
1.37609e-07
-3.00086e-06
-1.61876e-06
-5.37119e-05
5.32821e-05
-5.02354e-05
6.15246e-07
5.03299e-05
-1.59716e-06
6.17916e-07
1.73622e-07
-5.29881e-05
-3.59857e-07
5.29789e-05
3.30757e-07
-5.29611e-05
-1.33672e-07
2.98674e-08
5.29104e-05
3.28076e-07
1.68046e-07
-3.34805e-07
2.9477e-07
-1.27903e-07
2.74778e-08
3.0947e-07
1.31474e-07
-4.88761e-05
4.90001e-05
-4.95494e-05
2.82014e-08
4.9519e-05
1.32564e-07
3.01203e-08
1.94265e-11
-5.31885e-05
-1.65829e-07
5.30962e-05
2.87974e-07
-5.31883e-05
-1.66225e-07
-2.94547e-08
5.30961e-05
2.87966e-07
5.43021e-11
-1.62964e-07
2.76914e-07
-1.62572e-07
-2.77329e-08
2.76894e-07
-1.20044e-09
-5.05431e-05
5.04067e-05
-5.05419e-05
-3.23246e-08
5.04068e-05
1.16921e-09
-2.60591e-08
-1.73378e-07
-5.29607e-05
-1.33444e-07
5.29101e-05
3.2801e-07
-5.29878e-05
-3.59346e-07
-1.35388e-07
5.29784e-05
3.30747e-07
-1.68182e-07
-1.27938e-07
3.094e-07
-3.35329e-07
-1.37513e-07
2.9484e-07
-1.34969e-07
-4.95491e-05
4.95183e-05
-4.88769e-05
-6.16478e-07
4.89991e-05
-1.28886e-07
-6.16712e-07
5.53874e-07
-5.3785e-05
2.32846e-06
5.37323e-05
-2.965e-06
-5.51639e-05
-2.04829e-06
5.49202e-05
2.84591e-06
5.34976e-07
2.35656e-06
-3.00043e-06
-2.05266e-06
2.83824e-06
1.61816e-06
-5.02356e-05
5.03294e-05
-5.37115e-05
5.32813e-05
1.59733e-06
-5.73391e-07
-5.46831e-05
-1.99843e-06
5.44478e-05
2.80706e-06
-5.36624e-05
2.22919e-06
1.2792e-07
5.35711e-05
-2.83919e-06
-5.59435e-07
-2.00014e-06
2.79749e-06
2.25346e-06
1.30428e-07
-2.8728e-06
-1.61957e-06
-5.28865e-05
5.25077e-05
-5.03766e-05
5.99562e-07
5.03867e-05
-1.60461e-06
6.02131e-07
1.78042e-07
-5.29515e-05
-4.01081e-07
5.29056e-05
3.96943e-07
-5.28502e-05
-1.47196e-07
3.25404e-08
5.27783e-05
3.6458e-07
1.74466e-07
-3.77355e-07
3.60714e-07
-1.38357e-07
3.08819e-08
3.42158e-07
1.34043e-07
-4.90915e-05
4.91559e-05
-4.94819e-05
3.25108e-08
4.94363e-05
1.33335e-07
3.20715e-08
1.86446e-11
-5.2999e-05
-1.70299e-07
5.2894e-05
3.07742e-07
-5.29988e-05
-1.70309e-07
-3.24949e-08
5.28939e-05
3.07731e-07
5.18574e-11
-1.66388e-07
2.94447e-07
-1.66231e-07
-3.0916e-08
2.94431e-07
-2.17666e-11
-5.02719e-05
5.01341e-05
-5.02714e-05
-3.27881e-08
5.01338e-05
4.87784e-10
-3.02728e-08
-1.77993e-07
-5.28499e-05
-1.47158e-07
5.2778e-05
3.64523e-07
-5.29511e-05
-4.01088e-07
-1.27899e-07
5.29051e-05
3.96986e-07
-1.74454e-07
-1.38353e-07
3.42097e-07
-3.77537e-07
-1.30371e-07
3.60756e-07
-1.34293e-07
-4.94815e-05
4.94358e-05
-4.90914e-05
-5.99632e-07
4.91557e-05
-1.3182e-07
-6.01703e-07
5.7321e-07
-5.36618e-05
2.22897e-06
5.35705e-05
-2.83878e-06
-5.46823e-05
-1.99817e-06
5.44471e-05
2.80657e-06
5.59278e-07
2.25322e-06
-2.87239e-06
-1.99986e-06
2.79698e-06
1.61934e-06
-5.03764e-05
5.03864e-05
-5.2886e-05
5.25072e-05
1.60452e-06
-5.8377e-07
-5.42144e-05
-1.9548e-06
5.39796e-05
2.77342e-06
-5.34641e-05
2.13829e-06
1.20327e-07
5.3338e-05
-2.71628e-06
-5.74005e-07
-1.9549e-06
2.76234e-06
2.16082e-06
1.22923e-07
-2.75083e-06
-1.60982e-06
-5.21532e-05
5.18082e-05
-5.03617e-05
5.82456e-07
5.03077e-05
-1.60042e-06
5.85442e-07
1.79431e-07
-5.28424e-05
-4.38584e-07
5.27608e-05
4.6103e-07
-5.26952e-05
-1.65916e-07
3.45294e-08
5.25987e-05
4.07291e-07
1.77363e-07
-4.16545e-07
4.25285e-07
-1.54589e-07
3.33049e-08
3.81809e-07
1.33634e-07
-4.9192e-05
4.92023e-05
-4.93812e-05
3.44599e-08
4.93144e-05
1.32813e-07
3.33533e-08
1.7166e-11
-5.27828e-05
-1.7685e-07
5.2662e-05
3.32172e-07
-5.27827e-05
-1.76839e-07
-3.44975e-08
5.26619e-05
3.32159e-07
1.8071e-11
-1.71513e-07
3.16052e-07
-1.71502e-07
-3.32719e-08
3.1604e-07
1.79198e-11
-4.99959e-05
4.98535e-05
-4.99956e-05
-3.44294e-08
4.98532e-05
2.55376e-11
-3.32862e-08
-1.79388e-07
-5.26949e-05
-1.65886e-07
5.25984e-05
4.0724e-07
-5.2842e-05
-4.38611e-07
-1.20308e-07
5.27604e-05
4.61074e-07
-1.77321e-07
-1.54556e-07
3.81754e-07
-4.1657e-07
-1.22901e-07
4.25325e-07
-1.33613e-07
-4.93807e-05
4.9314e-05
-4.91918e-05
-5.82475e-07
4.9202e-05
-1.32758e-07
-5.85453e-07
5.83583e-07
-5.34636e-05
2.13808e-06
5.33375e-05
-2.71588e-06
-5.42137e-05
-1.95456e-06
5.3979e-05
2.77293e-06
5.73822e-07
2.16062e-06
-2.75043e-06
-1.95461e-06
2.76183e-06
1.6096e-06
-5.03613e-05
5.03073e-05
-5.21528e-05
5.18078e-05
1.60021e-06
-5.87757e-07
-5.37431e-05
-1.91841e-06
5.35019e-05
2.74742e-06
-5.31986e-05
2.05201e-06
1.13168e-07
5.30403e-05
-2.59472e-06
-5.80654e-07
-1.91431e-06
2.73138e-06
2.07189e-06
1.15538e-07
-2.62861e-06
-1.59288e-06
-5.14802e-05
5.11547e-05
-5.0225e-05
5.65398e-07
5.01188e-05
-1.58632e-06
5.68213e-07
1.78518e-07
-5.2663e-05
-4.7294e-07
5.25466e-05
5.24058e-07
-5.24903e-05
-1.88179e-07
3.5822e-08
5.23673e-05
4.53903e-07
1.77433e-07
-4.52054e-07
4.8796e-07
-1.7497e-07
3.49081e-08
4.25889e-07
1.31989e-07
-4.91868e-05
4.91473e-05
-4.92363e-05
3.5571e-08
4.91445e-05
1.31606e-07
3.47471e-08
1.70954e-11
-5.25329e-05
-1.87914e-07
5.2392e-05
3.64583e-07
-5.25328e-05
-1.87902e-07
-3.57907e-08
5.23919e-05
3.6457e-07
1.68306e-11
-1.79983e-07
3.4396e-07
-1.79972e-07
-3.4877e-08
3.43947e-07
1.72916e-11
-4.97082e-05
4.95559e-05
-4.9708e-05
-3.55406e-08
4.95557e-05
1.71727e-11
-3.47165e-08
-1.78476e-07
-5.249e-05
-1.88154e-07
5.2367e-05
4.53858e-07
-5.26626e-05
-4.72966e-07
-1.13151e-07
5.25462e-05
5.241e-07
-1.77391e-07
-1.74944e-07
4.25841e-07
-4.52079e-07
-1.1552e-07
4.88001e-07
-1.31969e-07
-4.92359e-05
4.91442e-05
-4.91866e-05
-5.65419e-07
4.91471e-05
-1.31585e-07
-5.68233e-07
5.87567e-07
-5.3198e-05
2.05181e-06
5.30398e-05
-2.59434e-06
-5.37426e-05
-1.91817e-06
5.35014e-05
2.74693e-06
5.80467e-07
2.07171e-06
-2.62823e-06
-1.91403e-06
2.73087e-06
1.59266e-06
-5.02247e-05
5.01184e-05
-5.14799e-05
5.11544e-05
1.5861e-06
-5.87325e-07
-5.32559e-05
-1.89002e-06
5.3002e-05
2.7313e-06
-5.28697e-05
1.97046e-06
1.06661e-07
5.26802e-05
-2.47501e-06
-5.82095e-07
-1.88192e-06
2.70997e-06
1.98867e-06
1.08732e-07
-2.50883e-06
-1.57154e-06
-5.08396e-05
5.05211e-05
-4.99891e-05
5.49135e-07
4.98389e-05
-1.56678e-06
5.51593e-07
1.76111e-07
-5.24143e-05
-5.06048e-07
5.2263e-05
5.87932e-07
-5.22314e-05
-2.13604e-07
3.65333e-08
5.20794e-05
5.05234e-07
1.75675e-07
-4.85199e-07
5.50499e-07
-1.98573e-07
3.58785e-08
4.7421e-07
1.29684e-07
-4.90841e-05
4.89975e-05
-4.904e-05
3.61333e-08
4.892e-05
1.29598e-07
3.55536e-08
1.74664e-11
-5.22412e-05
-2.03895e-07
5.20765e-05
4.05109e-07
-5.22411e-05
-2.03884e-07
-3.65017e-08
5.20764e-05
4.05096e-07
1.7112e-11
-1.93344e-07
3.80015e-07
-1.93333e-07
-3.58473e-08
3.80003e-07
1.76016e-11
-4.93981e-05
4.92303e-05
-4.93979e-05
-3.6103e-08
4.92301e-05
1.72556e-11
-3.55236e-08
-1.7607e-07
-5.22312e-05
-2.13582e-07
5.20791e-05
5.05192e-07
-5.24139e-05
-5.06073e-07
-1.06644e-07
5.22626e-05
5.8797e-07
-1.75633e-07
-1.9855e-07
4.74166e-07
-4.85222e-07
-1.08715e-07
5.50536e-07
-1.29663e-07
-4.90397e-05
4.89197e-05
-4.90839e-05
-5.49158e-07
4.89973e-05
-1.29578e-07
-5.51614e-07
5.87136e-07
-5.28692e-05
1.97027e-06
5.26798e-05
-2.47465e-06
-5.32555e-05
-1.88978e-06
5.30015e-05
2.73082e-06
5.81908e-07
1.98849e-06
-2.50847e-06
-1.88164e-06
2.70947e-06
1.57132e-06
-4.99888e-05
4.98386e-05
-5.08393e-05
5.05208e-05
1.56656e-06
-5.83135e-07
-5.27407e-05
-1.86671e-06
5.24686e-05
2.72193e-06
-5.24788e-05
1.88948e-06
1.0077e-07
5.2258e-05
-2.35264e-06
-5.79665e-07
-1.85644e-06
2.69739e-06
1.90846e-06
1.02591e-07
-2.38924e-06
-1.54561e-06
-5.02079e-05
4.98868e-05
-4.96685e-05
5.33132e-07
4.94792e-05
-1.54322e-06
5.3559e-07
1.7254e-07
-5.20959e-05
-5.37567e-07
5.19092e-05
6.52549e-07
-5.19136e-05
-2.41728e-07
3.6733e-08
5.17302e-05
5.60995e-07
1.72657e-07
-5.1703e-07
6.14034e-07
-2.2508e-07
3.63159e-08
5.27195e-07
1.26795e-07
-4.8889e-05
4.87578e-05
-4.8786e-05
3.6219e-08
4.86349e-05
1.26993e-07
3.58609e-08
1.77398e-11
-5.19004e-05
-2.24396e-07
5.17084e-05
4.53111e-07
-5.19003e-05
-2.24386e-07
-3.67012e-08
5.17083e-05
4.53099e-07
1.74429e-11
-2.11422e-07
4.23861e-07
-2.11411e-07
-3.62845e-08
4.23849e-07
1.78841e-11
-4.90547e-05
4.88665e-05
-4.90545e-05
-3.61886e-08
4.88664e-05
1.75835e-11
-3.58308e-08
-1.72499e-07
-5.19134e-05
-2.41708e-07
5.17299e-05
5.60955e-07
-5.20956e-05
-5.37591e-07
-1.00754e-07
5.19088e-05
6.52584e-07
-1.72616e-07
-2.25059e-07
5.27154e-07
-5.17051e-07
-1.02575e-07
6.14067e-07
-1.26774e-07
-4.87858e-05
4.86347e-05
-4.88889e-05
-5.33155e-07
4.87577e-05
-1.26973e-07
-5.35613e-07
5.82948e-07
-5.24783e-05
1.8893e-06
5.22576e-05
-2.35229e-06
-5.27403e-05
-1.86648e-06
5.24683e-05
2.72146e-06
5.79479e-07
1.9083e-06
-2.38889e-06
-1.85617e-06
2.69689e-06
1.5454e-06
-4.96682e-05
4.9479e-05
-5.02077e-05
4.98866e-05
1.543e-06
-5.76884e-07
-5.21868e-05
-1.85051e-06
5.18914e-05
2.72274e-06
-5.20249e-05
1.81012e-06
9.56178e-08
5.17714e-05
-2.22915e-06
-5.74515e-07
-1.83738e-06
2.69375e-06
1.82967e-06
9.71492e-08
-2.26819e-06
-1.51811e-06
-4.95664e-05
4.9234e-05
-4.92716e-05
5.18138e-07
4.90454e-05
-1.51698e-06
5.20357e-07
1.68422e-07
-5.17065e-05
-5.68892e-07
5.14833e-05
7.19326e-07
-5.1532e-05
-2.72735e-07
3.65695e-08
5.13145e-05
6.22033e-07
1.68846e-07
-5.48153e-07
6.79083e-07
-2.54405e-07
3.63295e-08
5.85092e-07
1.23684e-07
-4.8606e-05
4.84315e-05
-4.84687e-05
3.59741e-08
4.82837e-05
1.2403e-07
3.57779e-08
1.78789e-11
-5.15034e-05
-2.49478e-07
5.12805e-05
5.08918e-07
-5.15033e-05
-2.49468e-07
-3.65378e-08
5.12804e-05
5.08906e-07
1.76468e-11
-2.34053e-07
4.75358e-07
-2.34042e-07
-3.6298e-08
4.75346e-07
1.80377e-11
-4.86682e-05
4.84547e-05
-4.86681e-05
-3.59437e-08
4.84546e-05
1.78038e-11
-3.57477e-08
-1.68382e-07
-5.15318e-05
-2.72716e-07
5.13143e-05
6.21993e-07
-5.17062e-05
-5.68915e-07
-9.56032e-08
5.1483e-05
7.19358e-07
-1.68806e-07
-2.54385e-07
5.85052e-07
-5.48173e-07
-9.71343e-08
6.79113e-07
-1.23665e-07
-4.84685e-05
4.82835e-05
-4.86059e-05
-5.18163e-07
4.84315e-05
-1.2401e-07
-5.20381e-07
5.76702e-07
-5.20245e-05
1.80996e-06
5.1771e-05
-2.22882e-06
-5.21864e-05
-1.85028e-06
5.18911e-05
2.72228e-06
5.74331e-07
1.82952e-06
-2.26786e-06
-1.83711e-06
2.69327e-06
1.51791e-06
-4.92714e-05
4.90452e-05
-4.95662e-05
4.92339e-05
1.51677e-06
-5.69038e-07
-5.15842e-05
-1.84009e-06
5.12609e-05
2.73239e-06
-5.1505e-05
1.73056e-06
9.11202e-08
5.12169e-05
-2.10262e-06
-5.67469e-07
-1.82433e-06
2.69903e-06
1.75116e-06
9.23795e-08
-2.14456e-06
-1.48919e-06
-4.88986e-05
4.85477e-05
-4.88017e-05
5.03916e-07
4.85392e-05
-1.48899e-06
5.05905e-07
1.63956e-07
-5.12439e-05
-6.00502e-07
5.09826e-05
7.88887e-07
-5.10814e-05
-3.06459e-07
3.61173e-08
5.08274e-05
6.88323e-07
1.64571e-07
-5.79225e-07
7.46477e-07
-2.86459e-07
3.60151e-08
6.48116e-07
1.20434e-07
-4.82374e-05
4.80203e-05
-4.80827e-05
3.54697e-08
4.78612e-05
1.20869e-07
3.53979e-08
1.78843e-11
-5.10432e-05
-2.78832e-07
5.0786e-05
5.72158e-07
-5.10431e-05
-2.78823e-07
-3.60857e-08
5.07859e-05
5.72148e-07
1.77131e-11
-2.61032e-07
5.34331e-07
-2.61022e-07
-3.59837e-08
5.3432e-07
1.80573e-11
-4.8229e-05
4.79857e-05
-4.82289e-05
-3.54395e-08
4.79856e-05
1.78853e-11
-3.53679e-08
-1.63917e-07
-5.10812e-05
-3.06441e-07
5.08272e-05
6.88285e-07
-5.12436e-05
-6.00523e-07
-9.11063e-08
5.09824e-05
7.88916e-07
-1.64531e-07
-2.86441e-07
6.48077e-07
-5.79244e-07
-9.23653e-08
7.46505e-07
-1.20415e-07
-4.80826e-05
4.78611e-05
-4.82373e-05
-5.03942e-07
4.80203e-05
-1.2085e-07
-5.0593e-07
5.68859e-07
-5.15046e-05
1.7304e-06
5.12165e-05
-2.1023e-06
-5.15839e-05
-1.83987e-06
5.12607e-05
2.73195e-06
5.6729e-07
1.75101e-06
-2.14425e-06
-1.82407e-06
2.69856e-06
1.48899e-06
-4.88015e-05
4.8539e-05
-4.88986e-05
4.85477e-05
1.48879e-06
-5.60087e-07
-5.09239e-05
-1.83499e-06
5.05684e-05
2.75057e-06
-5.0915e-05
1.65001e-06
8.72164e-08
5.05898e-05
-1.97218e-06
-5.59111e-07
-1.81678e-06
2.71294e-06
1.67203e-06
8.82296e-08
-2.01748e-06
-1.45937e-06
-4.81908e-05
4.78152e-05
-4.82591e-05
4.90414e-07
4.79593e-05
-1.45988e-06
4.92196e-07
1.59323e-07
-5.07047e-05
-6.33004e-07
5.04036e-05
8.61987e-07
-5.05568e-05
-3.42845e-07
3.54495e-08
5.02635e-05
7.59983e-07
1.60051e-07
-6.10899e-07
8.17028e-07
-3.21175e-07
3.54532e-08
7.16412e-07
1.17133e-07
-4.7784e-05
4.75243e-05
-4.76228e-05
3.47747e-08
4.73624e-05
1.1762e-07
3.47973e-08
1.77797e-11
-5.0513e-05
-3.12214e-07
5.0218e-05
6.42578e-07
-5.05129e-05
-3.12205e-07
-3.54183e-08
5.0218e-05
6.42568e-07
1.76597e-11
-2.92123e-07
6.00548e-07
-2.92114e-07
-3.54221e-08
6.00538e-07
1.79688e-11
-4.77283e-05
4.74509e-05
-4.77282e-05
-3.47449e-08
4.74508e-05
1.78471e-11
-3.47675e-08
-1.59285e-07
-5.05566e-05
-3.42828e-07
5.02634e-05
7.59945e-07
-5.07044e-05
-6.33025e-07
-8.7203e-08
5.04034e-05
8.62013e-07
-1.60013e-07
-3.21158e-07
7.16374e-07
-6.10917e-07
-8.8216e-08
8.17053e-07
-1.17115e-07
-4.76228e-05
4.73623e-05
-4.7784e-05
-4.9044e-07
4.75243e-05
-1.17601e-07
-4.92221e-07
5.59914e-07
-5.09147e-05
1.64986e-06
5.05896e-05
-1.97188e-06
-5.09237e-05
-1.83478e-06
5.05683e-05
2.75014e-06
5.58937e-07
1.67189e-06
-2.01719e-06
-1.81653e-06
2.71248e-06
1.45918e-06
-4.8259e-05
4.79592e-05
-4.81909e-05
4.78153e-05
1.45968e-06
-5.50255e-07
-5.01975e-05
-1.83428e-06
4.98058e-05
2.77623e-06
-5.02501e-05
1.56801e-06
8.38228e-08
4.98855e-05
-1.83744e-06
-5.49627e-07
-1.81349e-06
2.73401e-06
1.59107e-06
8.46011e-08
-1.8856e-06
-1.4287e-06
-4.74312e-05
4.70256e-05
-4.76419e-05
4.77465e-07
4.73038e-05
-1.42952e-06
4.7898e-07
1.54601e-07
-5.00853e-05
-6.66659e-07
4.97423e-05
9.38858e-07
-4.99528e-05
-3.81763e-07
3.4616e-08
4.96177e-05
8.36843e-07
1.55368e-07
-6.43449e-07
8.91009e-07
-3.58368e-07
3.46944e-08
7.8974e-07
1.13812e-07
-4.72455e-05
4.69425e-05
-4.70843e-05
3.39349e-08
4.67824e-05
1.14305e-07
3.40227e-08
1.75741e-11
-4.99062e-05
-3.49297e-07
4.95704e-05
7.19702e-07
-4.99062e-05
-3.49289e-07
-3.45854e-08
4.95704e-05
7.19693e-07
1.74994e-11
-3.26954e-07
6.73464e-07
-3.26946e-07
-3.46638e-08
6.73455e-07
1.7786e-11
-4.71579e-05
4.68425e-05
-4.71579e-05
-3.39055e-08
4.68425e-05
1.77058e-11
-3.39934e-08
-1.54564e-07
-4.99527e-05
-3.81747e-07
4.96176e-05
8.36807e-07
-5.00851e-05
-6.66679e-07
-8.38097e-08
4.97421e-05
9.38881e-07
-1.5533e-07
-3.58352e-07
7.89704e-07
-6.43466e-07
-8.45879e-08
8.91031e-07
-1.13794e-07
-4.70843e-05
4.67824e-05
-4.72456e-05
-4.77491e-07
4.69426e-05
-1.14287e-07
-4.79006e-07
5.50087e-07
-5.02499e-05
1.56788e-06
4.98853e-05
-1.83716e-06
-5.01974e-05
-1.83408e-06
4.98058e-05
2.77582e-06
5.49458e-07
1.59095e-06
-1.88531e-06
-1.81325e-06
2.73356e-06
1.42852e-06
-4.76418e-05
4.73037e-05
-4.74313e-05
4.70258e-05
1.42933e-06
-5.39934e-07
-4.93972e-05
-1.83819e-06
4.89656e-05
2.80969e-06
-4.95054e-05
1.48519e-06
8.09052e-08
4.9099e-05
-1.69958e-06
-5.39748e-07
-1.81557e-06
2.76395e-06
1.50998e-06
8.15029e-08
-1.75118e-06
-1.39783e-06
-4.66094e-05
4.61691e-05
-4.69478e-05
4.65135e-07
4.657e-05
-1.39934e-06
4.66581e-07
1.49902e-07
-4.93813e-05
-7.01884e-07
4.89943e-05
1.01993e-06
-4.92642e-05
-4.23257e-07
3.36705e-08
4.88846e-05
9.19059e-07
1.50732e-07
-6.77631e-07
9.6934e-07
-3.98258e-07
3.38168e-08
8.68673e-07
1.10534e-07
-4.66204e-05
4.62731e-05
-4.6462e-05
3.29997e-08
4.61163e-05
1.11061e-07
3.31473e-08
1.72606e-11
-4.92165e-05
-3.89913e-07
4.88367e-05
8.03357e-07
-4.92164e-05
-3.89906e-07
-3.36405e-08
4.88366e-05
8.03349e-07
1.72469e-11
-3.6552e-07
7.53254e-07
-3.65513e-07
-3.37867e-08
7.53246e-07
1.75032e-11
-4.65101e-05
4.61532e-05
-4.65101e-05
-3.29709e-08
4.61532e-05
1.74796e-11
-3.31185e-08
-1.49866e-07
-4.92641e-05
-4.23242e-07
4.88845e-05
9.19024e-07
-4.93812e-05
-7.01902e-07
-8.08921e-08
4.89942e-05
1.01995e-06
-1.50696e-07
-3.98242e-07
8.68638e-07
-6.77648e-07
-8.14899e-08
9.6936e-07
-1.10517e-07
-4.64621e-05
4.61164e-05
-4.66205e-05
-4.65162e-07
4.62733e-05
-1.11044e-07
-4.66607e-07
5.39771e-07
-4.95053e-05
1.48506e-06
4.90988e-05
-1.69931e-06
-4.93972e-05
-1.83799e-06
4.89656e-05
2.80929e-06
5.39584e-07
1.50986e-06
-1.75091e-06
-1.81534e-06
2.76352e-06
1.39765e-06
-4.69478e-05
4.65701e-05
-4.66096e-05
4.61693e-05
1.39917e-06
-5.29229e-07
-4.85157e-05
-1.84622e-06
4.80408e-05
2.85039e-06
-4.86763e-05
1.40059e-06
7.83879e-08
4.82253e-05
-1.55726e-06
-5.29301e-07
-1.82149e-06
2.80065e-06
1.42711e-06
7.88167e-08
-1.61248e-06
-1.36678e-06
-4.57162e-05
4.52367e-05
-4.61739e-05
4.53316e-07
4.57544e-05
-1.36862e-06
4.54615e-07
1.45252e-07
-4.85886e-05
-7.3885e-07
4.81553e-05
1.10534e-06
-4.84859e-05
-4.67189e-07
3.26431e-08
4.80593e-05
1.00638e-06
1.46094e-07
-7.13328e-07
1.05172e-06
-4.40547e-07
3.28353e-08
9.526e-07
1.07306e-07
-4.59066e-05
4.55137e-05
-4.57514e-05
3.19954e-08
4.53595e-05
1.07834e-07
3.21828e-08
1.68271e-11