/*--------------------------------*- C++ -*----------------------------------*\
  =========                 |
  \\      /  F ield         | OpenFOAM: The Open Source CFD Toolbox
   \\    /   O peration     | Website:  https://openfoam.org
    \\  /    A nd           | Version:  9
     \\/     M anipulation  |
\*---------------------------------------------------------------------------*/
FoamFile
{
    format      ascii;
    class       volVectorField;
    location    "2.55";
    object      U;
}
// * * * * * * * * * * * * * * * * * * * * * * * * * * * * * * * * * * * * * //

dimensions      [0 1 -1 0 0 0 0];

internalField   nonuniform List<vector> 
36360
(
(0.00293957 -0.122801 -0.498012)
(-0.000485927 -0.0907531 0.000180744)
(0.00281365 -0.126468 -0.500518)
(-0.00180084 -0.0824606 9.66257e-05)
(0.00212813 -0.134994 -0.500945)
(0.00689571 -0.0761382 6.26583e-06)
(0.005336 -0.14156 -0.501947)
(0.00711262 -0.081237 8.96496e-06)
(0.00168778 -0.097917 -0.00011422)
(-0.00131381 -0.102137 -5.87845e-06)
(-0.000768447 -0.095834 -6.57181e-05)
(-0.00280518 -0.100269 -3.1043e-06)
(0.00652276 -0.10157 4.91919e-06)
(0.00442095 -0.106134 -5.14786e-06)
(0.00738093 -0.107344 -1.26659e-05)
(0.00653926 -0.108935 -5.75624e-06)
(-0.00289363 -0.103645 -1.18704e-07)
(-0.00289309 -0.103645 1.31317e-07)
(-0.00326058 -0.101593 5.68346e-08)
(-0.00326067 -0.101593 -5.2444e-08)
(0.00454012 -0.104757 -1.78847e-06)
(0.00453969 -0.104757 1.80315e-06)
(0.00670403 -0.107235 -1.02486e-06)
(0.00670393 -0.107235 1.0299e-06)
(-0.00131155 -0.102137 5.89539e-06)
(0.00168939 -0.0979171 0.000114276)
(-0.00280409 -0.100269 3.10963e-06)
(-0.000766263 -0.0958341 6.57541e-05)
(0.00442039 -0.106133 5.16354e-06)
(0.00652263 -0.101565 -4.91194e-06)
(0.00653882 -0.108935 5.76299e-06)
(0.00738044 -0.107341 1.26606e-05)
(-0.000486194 -0.0907543 -0.000180775)
(0.00294109 -0.122799 0.498012)
(-0.00180177 -0.0824616 -9.66484e-05)
(0.00281495 -0.126467 0.500518)
(0.00689247 -0.0761329 -6.28123e-06)
(0.00213029 -0.135 0.500944)
(0.00710752 -0.0812261 -8.96582e-06)
(0.00533905 -0.14157 0.501947)
(0.0051806 -0.119539 -0.496151)
(-0.00391362 -0.0952363 0.000164668)
(0.00447299 -0.12167 -0.497121)
(-0.00204072 -0.0930857 0.000181533)
(0.0020948 -0.129897 -0.500941)
(-0.000351011 -0.0725957 -7.71176e-05)
(0.0017808 -0.132485 -0.501155)
(0.00305803 -0.0718433 -2.92253e-05)
(0.00218678 -0.0990583 -7.24021e-05)
(0.00127902 -0.102867 -1.12509e-05)
(0.00256464 -0.0986445 -9.83862e-05)
(0.000658093 -0.102774 -7.7877e-06)
(0.00414903 -0.0920642 0.000111493)
(0.00268817 -0.101437 -6.4709e-06)
(0.00586059 -0.0954578 5.36816e-05)
(0.00338456 -0.103535 -5.73885e-06)
(5.01127e-05 -0.104732 -2.32568e-06)
(5.07477e-05 -0.104732 2.32275e-06)
(-0.00134496 -0.104727 -9.1919e-07)
(-0.00134358 -0.104726 9.39265e-07)
(0.0016455 -0.103105 -2.91907e-06)
(0.00164541 -0.103104 2.94657e-06)
(0.00279765 -0.103453 -2.13917e-06)
(0.00279703 -0.103453 2.16379e-06)
(0.00127946 -0.102866 1.13401e-05)
(0.00218682 -0.0990575 7.24928e-05)
(0.000659372 -0.102774 7.8224e-06)
(0.00256496 -0.0986439 9.84421e-05)
(0.00268795 -0.101435 6.50692e-06)
(0.00414829 -0.0920603 -0.000111493)
(0.00338426 -0.103533 5.7629e-06)
(0.00585993 -0.095453 -5.36823e-05)
(-0.00391443 -0.0952355 -0.000164712)
(0.00518176 -0.119538 0.49615)
(-0.00204153 -0.093085 -0.000181559)
(0.0044744 -0.121669 0.497121)
(-0.000352939 -0.0725931 7.71028e-05)
(0.00209599 -0.1299 0.500941)
(0.00305579 -0.0718389 2.92114e-05)
(0.0017824 -0.132489 0.501155)
(0.00573457 -0.115818 -0.494755)
(-0.00601575 -0.0975699 0.000103331)
(0.00552785 -0.117545 -0.495365)
(-0.00519055 -0.0965559 0.000137291)
(0.00274642 -0.124076 -0.500668)
(-0.00320239 -0.0767171 -0.000190115)
(0.0024542 -0.126938 -0.500784)
(-0.00219771 -0.0742804 -0.000132135)
(0.00104926 -0.0989705 -3.35573e-06)
(0.00112485 -0.102362 -8.01433e-06)
(0.00157564 -0.0990757 -3.88482e-05)
(0.00130183 -0.102692 -1.18911e-05)
(0.00205833 -0.0882923 0.000233644)
(0.00131717 -0.0978102 1.12388e-06)
(0.00285511 -0.0896468 0.000173711)
(0.00191854 -0.0993616 -4.20582e-06)
(0.000749643 -0.104097 -5.64536e-06)
(0.000749739 -0.104097 5.67341e-06)
(0.000638342 -0.104457 -4.22977e-06)
(0.000638614 -0.104457 4.25127e-06)
(0.00100337 -0.100906 -5.11615e-06)
(0.00100341 -0.100905 5.14499e-06)
(0.00129016 -0.102072 -4.10445e-06)
(0.00129024 -0.102071 4.13159e-06)
(0.00112492 -0.10236 8.04194e-06)
(0.00104903 -0.0989695 3.37436e-06)
(0.00130204 -0.102691 1.19139e-05)
(0.00157537 -0.0990747 3.88829e-05)
(0.00131713 -0.0978081 -1.09819e-06)
(0.00205805 -0.0882895 -0.000233673)
(0.0019184 -0.0993594 4.233e-06)
(0.00285462 -0.0896435 -0.000173729)
(-0.00601623 -0.0975691 -0.000103379)
(0.00573531 -0.115816 0.494755)
(-0.00519126 -0.096555 -0.000137329)
(0.00552873 -0.117543 0.495364)
(-0.00320368 -0.0767164 0.000190078)
(0.00274715 -0.124077 0.500668)
(-0.00219931 -0.0742789 0.000132109)
(0.00245508 -0.12694 0.500784)
(0.00597429 -0.113006 -0.493763)
(-0.00681392 -0.0991739 2.74076e-05)
(0.00587257 -0.114317 -0.494197)
(-0.00651831 -0.0984286 6.59291e-05)
(0.00305592 -0.118861 -0.500484)
(-0.00400725 -0.0818935 -0.000304474)
(0.00293282 -0.121374 -0.500564)
(-0.00373619 -0.0793459 -0.000248157)
(0.000368342 -0.0989639 6.06255e-05)
(0.000700405 -0.101662 9.97109e-06)
(0.000649117 -0.0989159 3.0352e-05)
(0.000896573 -0.101989 -2.0914e-07)
(0.00120469 -0.0875936 0.000336935)
(0.000682717 -0.0959581 1.94108e-05)
(0.00155448 -0.0876839 0.000288449)
(0.000925911 -0.096719 9.23808e-06)
(0.000520205 -0.103319 -5.47988e-06)
(0.000520241 -0.103318 5.50998e-06)
(0.000650398 -0.103702 -6.00579e-06)
(0.000650452 -0.103702 6.03533e-06)
(0.000447404 -0.0994155 -5.08656e-06)
(0.000447471 -0.0994147 5.11721e-06)
(0.0006673 -0.10003 -5.49197e-06)
(0.000667378 -0.100029 5.52188e-06)
(0.000700409 -0.101661 -9.9457e-06)
(0.000368222 -0.0989629 -6.06134e-05)
(0.000896598 -0.101988 2.34948e-07)
(0.000648936 -0.0989149 -3.03373e-05)
(0.000682746 -0.095956 -1.93872e-05)
(0.00120458 -0.0875917 -0.000336969)
(0.00092592 -0.0967169 -9.21381e-06)
(0.00155435 -0.0876816 -0.000288482)
(-0.00681401 -0.0991732 -2.74654e-05)
(0.0059748 -0.113004 0.493763)
(-0.00651859 -0.0984278 -6.59818e-05)
(0.00587315 -0.114316 0.494197)
(-0.00400806 -0.0818937 0.000304417)
(0.00305635 -0.118861 0.500484)
(-0.0037373 -0.0793458 0.00024811)
(0.00293334 -0.121375 0.500564)
(0.00610546 -0.110845 -0.493023)
(-0.00705087 -0.100391 -4.75589e-05)
(0.0060465 -0.111857 -0.49334)
(-0.00697397 -0.0998234 -1.07526e-05)
(0.00315639 -0.11447 -0.500347)
(-0.00420214 -0.0863582 -0.0004077)
(0.00311676 -0.11656 -0.500406)
(-0.00413739 -0.084247 -0.000357878)
(8.7725e-05 -0.0992983 0.000109293)
(0.000455394 -0.101217 3.31832e-05)
(0.000189805 -0.0991015 8.69661e-05)
(0.000554528 -0.101405 2.1356e-05)
(0.000848889 -0.08828 0.000414061)
(0.000419515 -0.0950469 4.28933e-05)
(0.000980383 -0.0878327 0.000378706)
(0.000526993 -0.0954225 3.08638e-05)
(0.000362704 -0.102693 -2.14934e-06)
(0.000362721 -0.102692 2.17722e-06)
(0.000422705 -0.10298 -4.15624e-06)
(0.000422731 -0.102979 4.1861e-06)
(0.000265302 -0.0985993 -2.12281e-06)
(0.000265344 -0.0985983 2.14983e-06)
(0.000325915 -0.0989619 -3.92384e-06)
(0.000325967 -0.0989609 3.95393e-06)
(0.000455363 -0.101216 -3.31625e-05)
(8.76954e-05 -0.0992975 -0.00010929)
(0.000554515 -0.101404 -2.1332e-05)
(0.000189731 -0.0991006 -8.69571e-05)
(0.000419516 -0.0950449 -4.2876e-05)
(0.000848838 -0.0882786 -0.000414103)
(0.000527014 -0.0954204 -3.08419e-05)
(0.000980295 -0.087831 -0.000378742)
(-0.00705065 -0.10039 4.74881e-05)
(0.00610575 -0.110843 0.493023)
(-0.00697391 -0.0998227 1.06894e-05)
(0.00604685 -0.111855 0.493339)
(-0.00420257 -0.0863586 0.000407614)
(0.00315653 -0.114469 0.500347)
(-0.00413802 -0.0842474 0.000357809)
(0.00311698 -0.11656 0.500406)
(0.00618862 -0.109145 -0.492472)
(-0.00705719 -0.10128 -0.000115096)
(0.00614952 -0.109949 -0.492697)
(-0.00707087 -0.100875 -8.24111e-05)
(0.00316934 -0.110863 -0.500242)
(-0.00419692 -0.0898042 -0.000495377)
(0.00316361 -0.112577 -0.500286)
(-0.00420939 -0.0882094 -0.000453548)
(3.24763e-05 -0.0997444 0.000143079)
(0.000357467 -0.101011 5.63338e-05)
(4.28337e-05 -0.0995198 0.000127826)
(0.000393846 -0.101091 4.49216e-05)
(0.000789806 -0.0894266 0.000467469)
(0.000273273 -0.0946121 6.67706e-05)
(0.000796725 -0.0888325 0.000443415)
(0.00033529 -0.0947867 5.49963e-05)
(0.000322989 -0.102251 3.23538e-06)
(0.000322975 -0.10225 -3.20614e-06)
(0.000332674 -0.102453 4.12636e-07)
(0.000332681 -0.102453 -3.88616e-07)
(0.000226915 -0.0980006 2.83079e-06)
(0.000226927 -0.0979996 -2.76023e-06)
(0.000238017 -0.0982867 1.76477e-07)
(0.000238047 -0.0982857 -1.54269e-07)
(0.000357401 -0.101011 -5.63459e-05)
(3.25244e-05 -0.0997435 -0.000143121)
(0.000393798 -0.10109 -4.49093e-05)
(4.28313e-05 -0.099519 -0.000127834)
(0.000273216 -0.0946104 -6.68614e-05)
(0.000789808 -0.0894253 -0.000467625)
(0.000335258 -0.0947847 -5.49984e-05)
(0.00079669 -0.0888314 -0.000443471)
(-0.00705671 -0.101279 0.000114999)
(0.00618872 -0.109143 0.492472)
(-0.00707053 -0.100875 8.2329e-05)
(0.00614965 -0.109947 0.492697)
(-0.00419705 -0.0898044 0.000495274)
(0.00316924 -0.110861 0.500243)
(-0.00420969 -0.0882098 0.000453446)
(0.00316354 -0.112576 0.500286)
(0.00624136 -0.107757 -0.49206)
(-0.00696908 -0.101867 -0.000173281)
(0.00621645 -0.10842 -0.492218)
(-0.00701877 -0.101609 -0.000145376)
(0.00314178 -0.107899 -0.500162)
(-0.00410777 -0.0922828 -0.00056739)
(0.00315229 -0.109309 -0.500194)
(-0.00415355 -0.0911541 -0.000532914)
(6.95782e-05 -0.100154 0.000165308)
(0.000331309 -0.100917 7.72791e-05)
(4.39873e-05 -0.099959 0.000155387)
(0.000339015 -0.100957 6.71045e-05)
(0.000854702 -0.0905901 0.000502827)
(0.000195903 -0.0944131 8.88904e-05)
(0.000814591 -0.0900192 0.000486508)
(0.000229168 -0.0944945 7.76358e-05)
(0.000335134 -0.101911 9.19421e-06)
(0.000335152 -0.101911 -9.21158e-06)
(0.000325793 -0.102073 6.23503e-06)
(0.000325714 -0.102073 -6.13753e-06)
(0.000222324 -0.0974602 8.19329e-06)
(0.000222349 -0.0974591 -8.79353e-06)
(0.000223166 -0.097727 6.00306e-06)
(0.000223115 -0.0977259 -5.21126e-06)
(0.00033145 -0.100916 -7.71693e-05)
(6.93899e-05 -0.100153 -0.000165211)
(0.000338727 -0.100956 -6.71948e-05)
(4.42752e-05 -0.0999583 -0.000155523)
(0.000196037 -0.0944113 -8.81892e-05)
(0.000854523 -0.0905895 -0.000502121)
(0.000228899 -0.0944925 -7.84789e-05)
(0.00081481 -0.0900185 -0.000487471)
(-0.00696857 -0.101866 0.000173164)
(0.00624119 -0.107755 0.49206)
(-0.00701815 -0.101608 0.000145307)
(0.00621641 -0.108418 0.492218)
(-0.00410783 -0.092283 0.000566803)
(0.00314142 -0.107897 0.500162)
(-0.00415356 -0.0911545 0.000533326)
(0.003152 -0.109308 0.500195)
(0.0062696 -0.106577 -0.49175)
(-0.00684746 -0.102181 -0.000221859)
(0.00625608 -0.107146 -0.491862)
(-0.00690902 -0.102056 -0.000198725)
(0.00309356 -0.105445 -0.500099)
(-0.00397713 -0.0939579 -0.000624472)
(0.00311235 -0.106616 -0.500124)
(-0.00403847 -0.0932101 -0.000597379)
(0.000144178 -0.100462 0.000178681)
(0.000339361 -0.100841 9.48413e-05)
(0.000104315 -0.100323 0.000172884)
(0.000332187 -0.10088 8.64603e-05)
(0.000950381 -0.0916082 0.000523829)
(0.000151766 -0.0943033 0.000106874)
(0.000902135 -0.0911223 0.000514404)
(0.000171197 -0.0943515 9.80359e-05)
(0.000359349 -0.101609 1.51408e-05)
(0.000359326 -0.101609 -1.50521e-05)
(0.000346967 -0.101758 1.22249e-05)
(0.000346924 -0.101758 -1.21513e-05)
(0.000222526 -0.096935 1.41549e-05)
(0.000222483 -0.0969341 -1.42088e-05)
(0.000222284 -0.0971959 1.15141e-05)
(0.000222255 -0.0971949 -1.12332e-05)
(0.000339327 -0.100841 -9.47175e-05)
(0.00014417 -0.100461 -0.000178719)
(0.000332049 -0.100879 -8.64352e-05)
(0.000104403 -0.100322 -0.000172889)
(0.000151784 -0.0943018 -0.00010673)
(0.000950388 -0.0916075 -0.000523712)
(0.000171077 -0.09435 -9.82362e-05)
(0.000902221 -0.0911214 -0.000514665)
(-0.0068468 -0.10218 0.000221747)
(0.00626929 -0.106575 0.49175)
(-0.00690838 -0.102055 0.000198651)
(0.00625579 -0.107144 0.491862)
(-0.00397706 -0.0939578 0.000624255)
(0.00309308 -0.105443 0.500099)
(-0.00403845 -0.09321 0.000597432)
(0.00311184 -0.106614 0.500124)
(0.00628126 -0.105535 -0.491504)
(-0.00671919 -0.102263 -0.000261457)
(0.00627474 -0.106042 -0.491584)
(-0.00678179 -0.102248 -0.000242681)
(0.00303637 -0.103391 -0.500049)
(-0.00384286 -0.0949959 -0.000669659)
(0.00305783 -0.104374 -0.500067)
(-0.00390255 -0.094546 -0.00064807)
(0.000234954 -0.10064 0.000186153)
(0.000368865 -0.10074 0.000108775)
(0.000188909 -0.100568 0.000183012)
(0.000352261 -0.100796 0.000102178)
(0.00105177 -0.092416 0.000535729)
(0.00012888 -0.0942183 0.000122133)
(0.00100179 -0.0920396 0.000530488)
(0.000137999 -0.0942597 0.000114233)
(0.00038357 -0.101304 2.04255e-05)
(0.00038379 -0.101304 -2.03962e-05)
(0.000371655 -0.101458 1.78972e-05)
(0.000371547 -0.101458 -1.78057e-05)
(0.000221037 -0.096418 1.90946e-05)
(0.000221258 -0.0964175 -1.96534e-05)
(0.000222301 -0.0966757 1.70784e-05)
(0.000222191 -0.0966745 -1.66472e-05)
(0.000368772 -0.100739 -0.000108601)
(0.00023461 -0.10064 -0.000185988)
(0.000352122 -0.100795 -0.000102182)
(0.00018907 -0.100567 -0.000182997)
(0.0001288 -0.0942169 -0.000120435)
(0.00105148 -0.0924151 -0.000535354)
(0.000137888 -0.0942583 -0.000114774)
(0.00100195 -0.0920393 -0.000530734)
(-0.00671862 -0.102262 0.000261311)
(0.00628077 -0.105533 0.491505)
(-0.00678108 -0.102247 0.000242618)
(0.00627431 -0.10604 0.491585)
(-0.00384286 -0.0949954 0.000668697)
(0.00303574 -0.103389 0.500048)
(-0.00390247 -0.0945459 0.000648268)
(0.00305719 -0.104372 0.500067)
(0.00628672 -0.10458 -0.491303)
(-0.00659752 -0.102151 -0.000293109)
(0.00628183 -0.10505 -0.491365)
(-0.00665565 -0.102229 -0.000278106)
(0.00298178 -0.101643 -0.500007)
(-0.00372091 -0.0955478 -0.000704405)
(0.00300029 -0.102484 -0.500021)
(-0.00377293 -0.0953238 -0.000687117)
(0.000331587 -0.100677 0.000189404)
(0.000412509 -0.100583 0.000119263)
(0.000282475 -0.100677 0.000188078)
(0.000389065 -0.10067 0.000114258)
(0.00114962 -0.0929939 0.000541024)
(0.000123278 -0.0941204 0.000133409)
(0.00110239 -0.0927332 0.000538743)
(0.000124255 -0.0941725 0.000126062)
(0.000408981 -0.100974 2.48979e-05)
(0.000409333 -0.100974 -2.48107e-05)
(0.000396263 -0.101143 2.28067e-05)
(0.000395887 -0.101143 -2.26874e-05)
(0.000218052 -0.0959047 2.35348e-05)
(0.000218415 -0.0959037 -2.39755e-05)
(0.000219801 -0.0961606 2.21092e-05)
(0.000219437 -0.0961597 -2.12323e-05)
(0.000412247 -0.100583 -0.000118998)
(0.000331095 -0.100676 -0.000189232)
(0.000389028 -0.100669 -0.000114353)
(0.000282985 -0.100676 -0.000188142)
(0.000123048 -0.0941193 -0.000130949)
(0.0011492 -0.0929937 -0.000540906)
(0.000124258 -0.0941715 -0.000128229)
(0.00110286 -0.0927328 -0.000539009)
(-0.00659699 -0.10215 0.000292922)
(0.00628613 -0.104579 0.491303)
(-0.0066548 -0.102228 0.000278097)
(0.00628135 -0.105048 0.491365)
(-0.00372096 -0.0955474 0.000703125)
(0.00298109 -0.101642 0.500006)
(-0.00377274 -0.0953234 0.00068808)
(0.0029996 -0.102483 0.500021)
(0.00629341 -0.103676 -0.491125)
(-0.00648425 -0.101879 -0.000318059)
(0.00628663 -0.104124 -0.491173)
(-0.00653898 -0.102034 -0.000306296)
(0.00293292 -0.100125 -0.499969)
(-0.00361156 -0.0957338 -0.000730291)
(0.00294695 -0.10086 -0.499981)
(-0.00365741 -0.0956807 -0.000717745)
(0.000434556 -0.100573 0.000189894)
(0.000469446 -0.100353 0.00012668)
(0.000383011 -0.100642 0.000189888)
(0.00043942 -0.100478 0.000123224)
(0.00123783 -0.0933454 0.000542301)
(0.000130803 -0.0939781 0.000140099)
(0.00119586 -0.0931975 0.000542025)
(0.000125681 -0.094056 0.00013609)
(0.000439042 -0.100603 2.83981e-05)
(0.00043904 -0.100602 -2.83346e-05)
(0.000423497 -0.100794 2.6772e-05)
(0.000423336 -0.100794 -2.66741e-05)
(0.000216144 -0.0953888 2.72746e-05)
(0.000216149 -0.0953881 -2.72453e-05)
(0.000217012 -0.0956469 2.58127e-05)
(0.000216858 -0.0956466 -2.54281e-05)
(0.000469359 -0.100352 -0.000126616)
(0.000434583 -0.100572 -0.000189848)
(0.000439358 -0.100477 -0.000123203)
(0.000383194 -0.100641 -0.000189849)
(0.000130745 -0.0939772 -0.000139945)
(0.00123787 -0.093345 -0.000542283)
(0.00012565 -0.0940548 -0.000136811)
(0.00119604 -0.0931965 -0.000542018)
(-0.00648352 -0.101878 0.000317944)
(0.00629288 -0.103675 0.491125)
(-0.00653824 -0.102033 0.000306224)
(0.00628605 -0.104122 0.491174)
(-0.00361147 -0.0957332 0.00073008)
(0.00293226 -0.100124 0.499969)
(-0.00365733 -0.09568 0.000717984)
(0.0029462 -0.100859 0.499981)
(0.00631043 -0.102787 -0.490958)
(-0.00637526 -0.10147 -0.000337524)
(0.0062986 -0.103231 -0.491002)
(-0.00642871 -0.101691 -0.000328388)
(0.0028956 -0.0987653 -0.499936)
(-0.0035191 -0.0956446 -0.000750236)
(0.0029052 -0.0994291 -0.499946)
(-0.00355822 -0.0957191 -0.000740908)
(0.000538632 -0.100331 0.000188644)
(0.000538795 -0.100036 0.000131832)
(0.000486873 -0.100469 0.000189435)
(0.000502987 -0.100206 0.000129504)
(0.00131631 -0.0934845 0.000541061)
(0.000149038 -0.0937673 0.00014542)
(0.00127876 -0.0934404 0.000541916)
(0.000138742 -0.0938823 0.000142999)
(0.000476027 -0.100178 3.1076e-05)
(0.000476007 -0.100177 -3.10173e-05)
(0.000456181 -0.100397 2.9824e-05)
(0.000456161 -0.100397 -2.97634e-05)
(0.000216916 -0.094861 2.99849e-05)
(0.000216895 -0.0948605 -2.99239e-05)
(0.000215936 -0.0951265 2.87323e-05)
(0.000215919 -0.095126 -2.86641e-05)
(0.000538721 -0.100035 -0.000131777)
(0.000538684 -0.100331 -0.000188605)
(0.000502904 -0.100205 -0.000129448)
(0.000486917 -0.100468 -0.000189394)
(0.00014899 -0.0937665 -0.000145366)
(0.00131635 -0.0934841 -0.000541051)
(0.00013869 -0.0938814 -0.000142954)
(0.00127881 -0.0934399 -0.000541906)
(-0.00637454 -0.101469 0.0003374)
(0.0063099 -0.102786 0.490959)
(-0.006428 -0.10169 0.00032827)
(0.006298 -0.10323 0.491003)
(-0.00351903 -0.095644 0.000750059)
(0.00289495 -0.0987645 0.499936)
(-0.00355818 -0.0957185 0.000740741)
(0.00290444 -0.0994282 0.499946)
(0.00634144 -0.101887 -0.490796)
(-0.00626578 -0.100934 -0.000352571)
(0.00632182 -0.10234 -0.490835)
(-0.00631914 -0.101217 -0.000345527)
(0.00287099 -0.0975066 -0.499904)
(-0.00343451 -0.0953345 -0.000765338)
(0.00287361 -0.0981266 -0.499913)
(-0.00346825 -0.0955135 -0.000758349)
(0.000643647 -0.0999575 0.000186365)
(0.000617193 -0.0996219 0.000135136)
(0.00059141 -0.100161 0.000187602)
(0.000576939 -0.0998413 0.000133681)
(0.00138724 -0.0934277 0.000538228)
(0.000175714 -0.093469 0.000148863)
(0.00135394 -0.0934782 0.000539739)
(0.000161608 -0.0936294 0.000147348)
(0.000526743 -0.0996848 3.30765e-05)
(0.000526723 -0.0996845 -3.30177e-05)
(0.000499525 -0.0999406 3.21537e-05)
(0.000499505 -0.0999403 -3.20953e-05)
(0.000224568 -0.094306 3.19962e-05)
(0.000224544 -0.0943056 -3.19358e-05)
(0.000219791 -0.0945876 3.10685e-05)
(0.000219769 -0.0945872 -3.10082e-05)
(0.000617128 -0.0996214 -0.000135081)
(0.000643701 -0.0999568 -0.000186327)
(0.000576869 -0.0998407 -0.000133626)
(0.000591459 -0.10016 -0.000187563)
(0.000175676 -0.0934684 -0.000148808)
(0.00138729 -0.0934273 -0.00053822)
(0.000161566 -0.0936287 -0.000147294)
(0.00135399 -0.0934778 -0.00053973)
(-0.00626507 -0.100934 0.000352443)
(0.0063409 -0.101886 0.490797)
(-0.00631844 -0.101216 0.000345401)
(0.00632121 -0.102339 0.490836)
(-0.00343445 -0.0953339 0.000765156)
(0.00287035 -0.0975059 0.499904)
(-0.00346824 -0.0955128 0.00075817)
(0.00287284 -0.0981259 0.499913)
(0.00638879 -0.100951 -0.490638)
(-0.00615405 -0.10028 -0.000364097)
(0.00636089 -0.101425 -0.490673)
(-0.00620889 -0.100622 -0.000358704)
(0.00285879 -0.0962972 -0.499874)
(-0.0033573 -0.0948445 -0.000776509)
(0.00285513 -0.0968983 -0.499882)
(-0.00338772 -0.0951099 -0.000771333)
(0.000751852 -0.0994521 0.000183531)
(0.000705498 -0.0991032 0.000137015)
(0.000697836 -0.0997211 0.000184991)
(0.000660169 -0.0993761 0.000136222)
(0.0014551 -0.0931868 0.000534708)
(0.000208969 -0.0930698 0.000150834)
(0.00142296 -0.0933285 0.000536567)
(0.000191736 -0.0932822 0.000150006)
(0.000592556 -0.0991089 3.44931e-05)
(0.000592536 -0.0991087 -3.44331e-05)
(0.00055776 -0.0994079 3.38487e-05)
(0.00055774 -0.0994077 -3.37893e-05)
(0.000239834 -0.0937031 3.34309e-05)
(0.000239809 -0.0937027 -3.33693e-05)
(0.000231217 -0.0940112 3.27785e-05)
(0.000231193 -0.0940108 -3.27175e-05)
(0.000705439 -0.0991027 -0.000136959)
(0.000751905 -0.0994514 -0.000183493)
(0.000660107 -0.0993756 -0.000136166)
(0.000697884 -0.0997204 -0.000184953)
(0.000208936 -0.0930692 -0.000150779)
(0.00145515 -0.0931865 -0.000534701)
(0.000191701 -0.0932816 -0.000149951)
(0.001423 -0.0933282 -0.000536559)
(-0.00615336 -0.100279 0.000363965)
(0.00638826 -0.10095 0.490639)
(-0.00620821 -0.100621 0.000358574)
(0.00636028 -0.101424 0.490674)
(-0.00335726 -0.0948439 0.000776325)
(0.00285815 -0.0962967 0.499874)
(-0.00338773 -0.0951093 0.00077115)
(0.00285437 -0.0968978 0.499882)
(0.00645299 -0.0999556 -0.490474)
(-0.00603677 -0.0995082 -0.000372855)
(0.00641664 -0.100462 -0.490511)
(-0.00609487 -0.0999089 -0.00036876)
(0.00285742 -0.0950956 -0.499844)
(-0.00328363 -0.0941986 -0.000784663)
(0.00284845 -0.0956975 -0.499852)
(-0.00331271 -0.0945397 -0.000780902)
(0.000864676 -0.0988139 0.00018049)
(0.000804617 -0.0984702 0.00013783)
(0.000808087 -0.0991496 0.000182019)
(0.000753747 -0.0988014 0.000137527)
(0.0015193 -0.092774 0.000530718)
(0.000247896 -0.0925583 0.000151701)
(0.00148856 -0.0930011 0.000532733)
(0.000227836 -0.0928282 0.000151382)
(0.000673807 -0.0984363 3.54314e-05)
(0.000673788 -0.0984361 -3.53703e-05)
(0.000631229 -0.0987853 3.50131e-05)
(0.00063121 -0.0987851 -3.49526e-05)
(0.000262714 -0.0930323 3.43921e-05)
(0.00026269 -0.093032 -3.43293e-05)
(0.000250284 -0.0933768 3.39638e-05)
(0.00025026 -0.0933764 -3.39017e-05)
(0.000804561 -0.0984697 -0.000137774)
(0.000864727 -0.0988133 -0.000180453)
(0.000753689 -0.0988009 -0.000137471)
(0.000808133 -0.0991489 -0.000181981)
(0.000247867 -0.0925579 -0.000151645)
(0.00151934 -0.0927738 -0.000530712)
(0.000227804 -0.0928277 -0.000151326)
(0.0014886 -0.0930009 -0.000532727)
(-0.0060361 -0.0995074 0.000372722)
(0.00645246 -0.0999549 0.490474)
(-0.0060942 -0.099908 0.000368627)
(0.00641603 -0.100461 0.490511)
(-0.00328361 -0.0941981 0.000784478)
(0.00285679 -0.0950953 0.499844)
(-0.00331272 -0.0945391 0.000780718)
(0.0028477 -0.095697 0.499852)
(0.00653473 -0.0988821 -0.49031)
(-0.00591079 -0.0986154 -0.000379452)
(0.00648959 -0.0994298 -0.490346)
(-0.0059736 -0.0990772 -0.00037637)
(0.00286669 -0.0938672 -0.499815)
(-0.00321092 -0.0934099 -0.000790457)
(0.00285251 -0.0944866 -0.499822)
(-0.00323983 -0.0938213 -0.000787806)
(0.000983879 -0.09804 0.000177461)
(0.000915426 -0.0977136 0.000137875)
(0.000923857 -0.0984441 0.000178963)
(0.000858602 -0.0981078 0.000137925)
(0.00158145 -0.0921955 0.000526598)
(0.000292169 -0.0919239 0.000151763)
(0.00155159 -0.0925048 0.000528654)
(0.000269464 -0.0922566 0.000151814)
(0.000770888 -0.0976536 3.59895e-05)
(0.00077087 -0.0976534 -3.59275e-05)
(0.000720345 -0.0980594 3.57499e-05)
(0.000720327 -0.0980592 -3.56884e-05)
(0.00029312 -0.0922749 3.49747e-05)
(0.000293096 -0.0922747 -3.49111e-05)
(0.000276927 -0.092665 3.47248e-05)
(0.000276904 -0.0926647 -3.46615e-05)
(0.000915371 -0.0977132 -0.000137819)
(0.000983928 -0.0980394 -0.000177424)
(0.000858546 -0.0981074 -0.000137869)
(0.000923902 -0.0984434 -0.000178926)
(0.000292141 -0.0919236 -0.000151706)
(0.0015815 -0.0921953 -0.000526593)
(0.000269435 -0.0922562 -0.000151758)
(0.00155163 -0.0925046 -0.000528648)
(-0.00591014 -0.0986147 0.000379318)
(0.0065342 -0.0988816 0.49031)
(-0.00597296 -0.0990764 0.000376237)
(0.00648898 -0.0994291 0.490346)
(-0.00321091 -0.0934095 0.000790273)
(0.00286606 -0.093867 0.499815)
(-0.00323986 -0.0938209 0.000787621)
(0.00285176 -0.0944863 0.499822)
(0.00663409 -0.0977118 -0.490144)
(-0.00577351 -0.0975954 -0.000384343)
(0.00658016 -0.09831 -0.490179)
(-0.00584229 -0.0981216 -0.000382063)
(0.0028854 -0.0925821 -0.499787)
(-0.00313664 -0.0924831 -0.000794379)
(0.00286657 -0.0932332 -0.499793)
(-0.00316654 -0.0929634 -0.000792612)
(0.00111132 -0.0971254 0.000174573)
(0.00103868 -0.0968236 0.000137369)
(0.00104694 -0.0976005 0.000175992)
(0.000975534 -0.0972857 0.000137671)
(0.00164276 -0.0914551 0.000522497)
(0.000341538 -0.0911565 0.000151243)
(0.00161315 -0.091845 0.00052453)
(0.000316291 -0.0915569 0.000151562)
(0.000884086 -0.0967475 3.62498e-05)
(0.00088407 -0.0967474 -3.61873e-05)
(0.000825447 -0.0972166 3.61497e-05)
(0.00082543 -0.0972165 -3.60875e-05)
(0.000330927 -0.0914131 3.52594e-05)
(0.000330905 -0.0914129 -3.51951e-05)
(0.000311035 -0.0918576 3.51493e-05)
(0.000311013 -0.0918573 -3.50853e-05)
(0.00103862 -0.0968232 -0.000137312)
(0.00111136 -0.0971249 -0.000174537)
(0.000975479 -0.0972853 -0.000137614)
(0.00104698 -0.0976 -0.000175955)
(0.000341512 -0.0911564 -0.000151187)
(0.0016428 -0.091455 -0.000522494)
(0.000316264 -0.0915567 -0.000151505)
(0.00161318 -0.0918449 -0.000524526)
(-0.00577288 -0.0975948 0.00038421)
(0.00663357 -0.0977114 0.490144)
(-0.00584167 -0.098121 0.00038193)
(0.00657957 -0.0983095 0.49018)
(-0.00313665 -0.0924828 0.000794196)
(0.00288478 -0.092582 0.499787)
(-0.00316659 -0.092963 0.000792429)
(0.00286582 -0.093233 0.499793)
(0.00675108 -0.0964277 -0.489975)
(-0.00562257 -0.0964401 -0.000387872)
(0.00668839 -0.0970848 -0.49001)
(-0.00569846 -0.0970351 -0.000386235)
(0.00291273 -0.0912148 -0.499759)
(-0.00305892 -0.0914176 -0.000796786)
(0.00288965 -0.0919099 -0.499765)
(-0.00309069 -0.0919677 -0.000795738)
(0.00124875 -0.0960639 0.000171896)
(0.00117507 -0.0957902 0.000136471)
(0.00117916 -0.0966133 0.000173203)
(0.00110526 -0.0963253 0.000136952)
(0.00170442 -0.0905537 0.000518495)
(0.000395915 -0.0902465 0.000150307)
(0.00167447 -0.0910242 0.000520472)
(0.000368147 -0.0907195 0.000150817)
(0.00101362 -0.0957052 3.62794e-05)
(0.0010136 -0.0957051 -3.62167e-05)
(0.000946782 -0.096244 3.62872e-05)
(0.000946767 -0.0962439 -3.62246e-05)
(0.000376007 -0.0904303 3.53118e-05)
(0.000375987 -0.0904302 -3.52471e-05)
(0.000352477 -0.0909373 3.53106e-05)
(0.000352456 -0.0909371 -3.52461e-05)
(0.00117502 -0.0957899 -0.000136415)
(0.0012488 -0.0960634 -0.000171861)
(0.00110521 -0.096325 -0.000136895)
(0.0011792 -0.0966129 -0.000173167)
(0.000395892 -0.0902465 -0.00015025)
(0.00170447 -0.0905537 -0.000518493)
(0.000368122 -0.0907193 -0.00015076)
(0.00167451 -0.0910242 -0.000520469)
(-0.00562195 -0.0964396 0.000387739)
(0.00675057 -0.0964274 0.489975)
(-0.00569786 -0.0970346 0.000386102)
(0.00668781 -0.0970845 0.490011)
(-0.00305894 -0.0914173 0.000796606)
(0.00291212 -0.0912149 0.499759)
(-0.00309075 -0.0919674 0.000795556)
(0.00288892 -0.0919099 0.499765)
(0.00688536 -0.0950141 -0.489802)
(-0.00545718 -0.0951401 -0.000390292)
(0.00681408 -0.0957379 -0.489835)
(-0.00554021 -0.0958087 -0.000389179)
(0.00294784 -0.0897441 -0.49973)
(-0.0029772 -0.090209 -0.000797941)
(0.00292076 -0.0904934 -0.499736)
(-0.00301069 -0.0908311 -0.00079749)
(0.0013974 -0.0948479 0.000169461)
(0.00132518 -0.0946038 0.000135293)
(0.00132209 -0.0954755 0.000170644)
(0.00124845 -0.0952166 0.000135902)
(0.00176746 -0.0894899 0.000514626)
(0.000455383 -0.0891847 0.000149067)
(0.00173672 -0.0900419 0.000516534)
(0.000425039 -0.0897347 0.000149717)
(0.00115962 -0.0945145 3.613e-05)
(0.0011596 -0.0945144 -3.60673e-05)
(0.00108453 -0.095129 3.62216e-05)
(0.00108451 -0.0951289 -3.61588e-05)
(0.000428257 -0.0893115 3.51828e-05)
(0.000428238 -0.0893114 -3.51179e-05)
(0.000401136 -0.0898883 3.52667e-05)
(0.000401117 -0.0898881 -3.52019e-05)
(0.00132513 -0.0946035 -0.000135237)
(0.00139744 -0.0948475 -0.000169425)
(0.00124839 -0.0952163 -0.000135846)
(0.00132213 -0.0954751 -0.000170608)
(0.000455362 -0.0891847 -0.000149011)
(0.0017675 -0.0894901 -0.000514625)
(0.000425016 -0.0897346 -0.000149661)
(0.00173676 -0.090042 -0.000516532)
(-0.00545659 -0.0951397 0.000390161)
(0.00688486 -0.095014 0.489802)
(-0.00553962 -0.0958082 0.000389048)
(0.00681351 -0.0957377 0.489836)
(-0.00297723 -0.0902089 0.000797764)
(0.00294724 -0.0897443 0.49973)
(-0.00301077 -0.090831 0.000797311)
(0.00292003 -0.0904935 0.499736)
(0.00703694 -0.0934567 -0.489627)
(-0.00527736 -0.0936863 -0.000391794)
(0.006957 -0.0942541 -0.489661)
(-0.00536796 -0.0944328 -0.00039112)
(0.00299068 -0.0881507 -0.499703)
(-0.00289156 -0.0888534 -0.000798037)
(0.00295987 -0.0889635 -0.499708)
(-0.0029273 -0.0895496 -0.000798096)
(0.00155826 -0.0934694 0.000167277)
(0.00148959 -0.093254 0.000133911)
(0.00147663 -0.0941793 0.000168335)
(0.00140562 -0.0939498 0.000134614)
(0.00183257 -0.0882608 0.000510894)
(0.000520047 -0.0879615 0.000147605)
(0.00180067 -0.0888959 0.000512734)
(0.000487078 -0.0885933 0.000148358)
(0.00132221 -0.0931631 3.58406e-05)
(0.0013222 -0.093163 -3.5778e-05)
(0.00123881 -0.0938594 3.5998e-05)
(0.00123879 -0.0938593 -3.59353e-05)
(0.000487562 -0.0880422 3.49114e-05)
(0.000487545 -0.0880421 -3.48465e-05)
(0.000456913 -0.0886959 3.50624e-05)
(0.000456895 -0.0886958 -3.49975e-05)
(0.00148954 -0.0932538 -0.000133856)
(0.00155829 -0.093469 -0.000167242)
(0.00140557 -0.0939495 -0.000134559)
(0.00147667 -0.0941789 -0.000168299)
(0.000520028 -0.0879617 -0.000147549)
(0.00183262 -0.0882611 -0.000510894)
(0.000487057 -0.0885934 -0.000148302)
(0.00180071 -0.0888961 -0.000512734)
(-0.00527679 -0.093686 0.000391665)
(0.00703645 -0.0934566 0.489627)
(-0.0053674 -0.0944325 0.00039099)
(0.00695644 -0.094254 0.489661)
(-0.00289161 -0.0888534 0.000797864)
(0.00299009 -0.088151 0.499703)
(-0.0029274 -0.0895496 0.00079792)
(0.00295916 -0.0889639 0.499708)
(0.00720618 -0.0917417 -0.489448)
(-0.00507962 -0.0920695 -0.00039251)
(0.00711742 -0.0926195 -0.489482)
(-0.00517952 -0.0928988 -0.000392213)
(0.00304043 -0.0864174 -0.499675)
(-0.00280046 -0.0873441 -0.00079721)
(0.00300618 -0.0873022 -0.49968)
(-0.00283892 -0.0881182 -0.000797716)
(0.00173268 -0.09192 0.000165331)
(0.00166873 -0.0917313 0.000132377)
(0.00164415 -0.0927164 0.000166272)
(0.00157735 -0.0925147 0.000133151)
(0.00190008 -0.0868619 0.000507283)
(0.000589871 -0.0865683 0.000145968)
(0.00186697 -0.0875825 0.000509066)
(0.000554312 -0.0872862 0.000146804)
(0.00150138 -0.0916399 3.54395e-05)
(0.00150137 -0.0916398 -3.53775e-05)