/*--------------------------------*- C++ -*----------------------------------*\
  =========                 |
  \\      /  F ield         | OpenFOAM: The Open Source CFD Toolbox
   \\    /   O peration     | Website:  https://openfoam.org
    \\  /    A nd           | Version:  9
     \\/     M anipulation  |
\*---------------------------------------------------------------------------*/
FoamFile
{
    format      ascii;
    class       surfaceScalarField;
    location    "0.4";
    object      phi;
}
// * * * * * * * * * * * * * * * * * * * * * * * * * * * * * * * * * * * * * //

dimensions      [0 3 -1 0 0 0 0];

internalField   nonuniform List<scalar> 
104044
(
-9.57258e-12
-1.3831e-05
-7.01273e-10
1.38293e-05
2.46029e-09
-1.38311e-05
-6.9119e-10
-1.10338e-12
1.38294e-05
2.44558e-09
1.01146e-11
-1.13024e-09
2.99907e-09
-1.14382e-09
4.04008e-13
3.01279e-09
-6.86419e-12
-4.90313e-06
4.90244e-06
-4.90317e-06
-1.37927e-12
4.90247e-06
9.28931e-12
4.88908e-13
-7.77159e-13
-1.38312e-05
-6.88359e-10
1.38295e-05
2.44085e-09
-1.38314e-05
-6.87657e-10
-7.03192e-13
1.38296e-05
2.43911e-09
-4.01527e-13
-1.14599e-09
3.0178e-09
-1.14639e-09
-2.53021e-13
3.0188e-09
-8.8545e-13
-4.90321e-06
4.90252e-06
-4.90325e-06
-7.10298e-13
4.90256e-06
-3.49451e-13
-2.38414e-13
-1.77905e-13
-1.38315e-05
-6.87618e-10
1.38297e-05
2.43916e-09
-1.38315e-05
-6.88309e-10
3.63435e-13
1.38297e-05
2.4412e-09
6.84879e-15
-1.14677e-09
3.01983e-09
-1.14777e-09
2.953e-13
3.02231e-09
-1.70769e-13
-4.90328e-06
4.90259e-06
-4.90328e-06
3.67437e-13
4.90259e-06
1.92273e-14
3.00941e-13
4.87131e-13
-1.38314e-05
-6.89666e-10
1.38296e-05
2.44501e-09
-1.38313e-05
-6.91513e-10
1.03842e-12
1.38295e-05
2.45002e-09
4.9668e-13
-1.14932e-09
3.02601e-09
-1.15058e-09
-3.7516e-13
3.02905e-09
5.29166e-13
-4.90325e-06
4.90256e-06
-4.90321e-06
1.04084e-12
4.90252e-06
4.44493e-13
-4.78811e-13
9.78887e-12
-1.38311e-05
-6.9507e-10
1.38294e-05
2.45706e-09
-1.3831e-05
-7.05535e-10
1.38293e-05
2.4732e-09
-1.01329e-11
-1.14959e-09
3.02693e-09
-1.13652e-09
3.01482e-09
6.83894e-12
-4.90318e-06
4.90248e-06
-4.90314e-06
4.90244e-06
-9.40559e-12
-3.20958e-12
-1.38274e-05
-7.32507e-10
1.3825e-05
3.09266e-09
-1.38275e-05
-7.32803e-10
-2.13603e-12
1.38251e-05
3.09062e-09
-3.94675e-12
-6.05524e-10
2.48516e-09
-6.05349e-10
-1.19792e-12
2.4819e-09
-2.31573e-12
-4.90184e-06
4.90111e-06
-4.90187e-06
-2.90394e-12
4.90114e-06
-3.39571e-12
-1.41192e-12
-2.20769e-12
-1.38276e-05
-7.31096e-10
1.38253e-05
3.08867e-09
-1.38278e-05
-7.30326e-10
-1.4989e-12
1.38254e-05
3.08638e-09
-1.42086e-12
-6.05217e-10
2.48063e-09
-6.05138e-10
-1.13425e-12
2.47947e-09
-2.36019e-12
-4.90191e-06
4.90118e-06
-4.90195e-06
-1.47815e-12
4.90122e-06
-1.48483e-12
-1.1202e-12
-1.07939e-13
-1.38278e-05
-7.29893e-10
1.38255e-05
3.08537e-09
-1.38278e-05
-7.30158e-10
1.29373e-12
1.38255e-05
3.08628e-09
-2.42967e-13
-6.0507e-10
2.47923e-09
-6.05526e-10
6.66455e-13
2.48068e-09
-9.38029e-14
-4.90198e-06
4.90125e-06
-4.90198e-06
1.29384e-12
4.90125e-06
-2.18364e-13
6.86877e-13
2.05617e-12
-1.38278e-05
-7.31092e-10
1.38254e-05
3.089e-09
-1.38276e-05
-7.3229e-10
2.13246e-12
1.38253e-05
3.09274e-09
9.65866e-13
-6.06453e-10
2.48368e-09
-6.07249e-10
7.59201e-13
2.48714e-09
2.20944e-12
-4.90196e-06
4.90122e-06
-4.90191e-06
2.83201e-12
4.90118e-06
1.04827e-12
1.00108e-12
3.39786e-12
-1.38275e-05
-7.34318e-10
1.38251e-05
3.0957e-09
-1.38274e-05
-7.341e-10
1.3825e-05
3.09839e-09
3.86234e-12
-6.07959e-10
2.49001e-09
-6.08236e-10
2.49431e-09
2.30556e-12
-4.90187e-06
4.90114e-06
-4.90184e-06
4.90111e-06
2.98962e-12
-4.36013e-12
-1.3822e-05
-1.26208e-09
1.38181e-05
5.15255e-09
-1.38221e-05
-1.26257e-09
-3.84851e-12
1.38182e-05
5.14947e-09
-3.79541e-12
-9.57642e-10
3.98235e-09
-9.57626e-10
-3.05699e-12
3.97954e-09
-2.27841e-12
-4.90015e-06
4.89889e-06
-4.90018e-06
-4.39428e-12
4.89892e-06
-2.28989e-12
-3.7042e-12
-3.66255e-12
-1.38222e-05
-1.25974e-09
1.38184e-05
5.14696e-09
-1.38224e-05
-1.25845e-09
-2.10673e-12
1.38185e-05
5.14389e-09
-2.91637e-12
-9.55171e-10
3.97711e-09
-9.54094e-10
-1.7663e-12
3.97433e-09
-3.73954e-12
-4.90022e-06
4.89896e-06
-4.90027e-06
-2.05488e-12
4.89901e-06
-3.04333e-12
-1.73293e-12
2.61969e-13
-1.38225e-05
-1.25768e-09
1.38186e-05
5.14215e-09
-1.38225e-05
-1.25772e-09
2.59637e-12
1.38186e-05
5.14234e-09
8.55073e-14
-9.53478e-10
3.9729e-09
-9.53597e-10
1.92986e-12
3.97336e-09
2.73429e-13
-4.90029e-06
4.89903e-06
-4.90029e-06
2.57514e-12
4.89903e-06
1.01331e-13
1.92865e-12
4.04735e-12
-1.38224e-05
-1.25855e-09
1.38185e-05
5.14444e-09
-1.38222e-05
-1.25989e-09
4.01332e-12
1.38184e-05
5.14784e-09
3.0602e-12
-9.54437e-10
3.97567e-09
-9.55704e-10
3.17998e-12
3.97919e-09
4.18384e-12
-4.90027e-06
4.89901e-06
-4.90022e-06
4.70994e-12
4.89896e-06
3.22214e-12
3.85715e-12
4.25852e-12
-1.38221e-05
-1.26276e-09
1.38182e-05
5.15057e-09
-1.3822e-05
-1.26237e-09
1.38181e-05
5.15362e-09
3.85889e-12
-9.58304e-10
3.98216e-09
-9.58409e-10
3.98524e-09
2.39416e-12
-4.90018e-06
4.89892e-06
-4.90015e-06
4.89889e-06
2.38078e-12
-5.22999e-12
-1.38134e-05
-1.9202e-09
1.38076e-05
7.68982e-09
-1.38135e-05
-1.92165e-09
-4.76796e-12
1.38077e-05
7.68634e-09
-4.55068e-12
-1.56853e-09
6.32531e-09
-1.56954e-09
-4.19036e-12
6.32212e-09
-2.23875e-12
-4.89732e-06
4.89541e-06
-4.89735e-06
-5.58417e-12
4.89543e-06
-1.97308e-12
-4.82867e-12
-4.93702e-12
-1.38136e-05
-1.91798e-09
1.38078e-05
7.68385e-09
-1.38137e-05
-1.91637e-09
-2.91492e-12
1.3808e-05
7.68025e-09
-4.2064e-12
-1.56633e-09
6.31964e-09
-1.56488e-09
-2.42153e-12
6.31634e-09
-5.03712e-12
-4.8974e-06
4.89548e-06
-4.89744e-06
-2.84541e-12
4.89552e-06
-4.29304e-12
-2.37348e-12
3.10207e-13
-1.38138e-05
-1.91537e-09
1.38081e-05
7.67811e-09
-1.38138e-05
-1.91537e-09
3.49583e-12
1.38081e-05
7.67812e-09
3.58927e-13
-1.56399e-09
6.31439e-09
-1.564e-09
3.1053e-12
6.31444e-09
3.10177e-13
-4.89747e-06
4.89555e-06
-4.89747e-06
3.43546e-12
4.89555e-06
3.50583e-13
3.05189e-12
5.39703e-12
-1.38137e-05
-1.91635e-09
1.3808e-05
7.68029e-09
-1.38136e-05
-1.91794e-09
4.97804e-12
1.38078e-05
7.68393e-09
4.7935e-12
-1.56488e-09
6.3165e-09
-1.56632e-09
4.59497e-12
6.31992e-09
5.53564e-12
-4.89744e-06
4.89552e-06
-4.8974e-06
5.93212e-12
4.89548e-06
4.91301e-12
5.38061e-12
5.12601e-12
-1.38135e-05
-1.92162e-09
1.38077e-05
7.68644e-09
-1.38134e-05
-1.92027e-09
1.38076e-05
7.68977e-09
4.6886e-12
-1.56953e-09
6.32248e-09
-1.56866e-09
6.32553e-09
2.34435e-12
-4.89735e-06
4.89543e-06
-4.89732e-06
4.89541e-06
2.46278e-12
-6.34429e-12
-1.38009e-05
-2.62846e-09
1.37931e-05
1.04551e-08
-1.3801e-05
-2.63076e-09
-5.5883e-12
1.37932e-05
1.0451e-08
-5.44541e-12
-2.24493e-09
8.95304e-09
-2.24679e-09
-5.00882e-12
8.9494e-09
-2.41207e-12
-4.89316e-06
4.89054e-06
-4.89319e-06
-6.86077e-12
4.89056e-06
-2.07162e-12
-6.06779e-12
-6.1626e-12
-1.38011e-05
-2.62612e-09
1.37933e-05
1.04486e-08
-1.38013e-05
-2.62427e-09
-3.78873e-12
1.37934e-05
1.04444e-08
-5.4549e-12
-2.24269e-09
8.94697e-09
-2.24098e-09
-3.30236e-12
8.94314e-09
-6.32644e-12
-4.89323e-06
4.89061e-06
-4.89328e-06
-3.69292e-12
4.89065e-06
-5.59769e-12
-3.23043e-12
2.16677e-13
-1.38014e-05
-2.6231e-09
1.37935e-05
1.0442e-08
-1.38014e-05
-2.6231e-09
4.19109e-12
1.37935e-05
1.0442e-08
2.68208e-13
-2.23991e-09
8.94086e-09
-2.23991e-09
3.8128e-12
8.94087e-09
2.23111e-13
-4.89331e-06
4.89068e-06
-4.89331e-06
4.1151e-12
4.89068e-06
2.64816e-13
3.7412e-12
6.47244e-12
-1.38013e-05
-2.62428e-09
1.37934e-05
1.04445e-08
-1.38011e-05
-2.62612e-09
5.69996e-12
1.37933e-05
1.04486e-08
5.8906e-12
-2.24098e-09
8.94316e-09
-2.24268e-09
5.32261e-12
8.94702e-09
6.68059e-12
-4.89328e-06
4.89065e-06
-4.89324e-06
7.10614e-12
4.89061e-06
6.05687e-12
6.46967e-12
6.24116e-12
-1.3801e-05
-2.63077e-09
1.37932e-05
1.04511e-08
-1.38009e-05
-2.62855e-09
1.37931e-05
1.0455e-08
5.62239e-12
-2.24678e-09
8.94946e-09
-2.24502e-09
8.95297e-09
2.47261e-12
-4.89319e-06
4.89057e-06
-4.89316e-06
4.89054e-06
2.44653e-12
-7.62991e-12
-1.37842e-05
-3.41339e-09
1.37741e-05
1.3523e-08
-1.37843e-05
-3.41654e-09
-6.33615e-12
1.37742e-05
1.35181e-08
-6.82027e-12
-2.97908e-09
1.18239e-08
-2.9818e-09
-5.85462e-12
1.18195e-08
-2.66199e-12
-4.88756e-06
4.88415e-06
-4.88759e-06
-8.20938e-12
4.88418e-06
-2.35939e-12
-7.39259e-12
-7.35438e-12
-1.37845e-05
-3.41084e-09
1.37744e-05
1.35159e-08
-1.37846e-05
-3.40878e-09
-4.67749e-12
1.37745e-05
1.35111e-08
-6.66217e-12
-2.97668e-09
1.18172e-08
-2.97474e-09
-4.16191e-12
1.18128e-08
-7.62301e-12
-4.88763e-06
4.88422e-06
-4.88767e-06
-4.57265e-12
4.88426e-06
-6.87267e-12
-4.06411e-12
4.68033e-14
-1.37847e-05
-3.40743e-09
1.37746e-05
1.35083e-08
-1.37847e-05
-3.40743e-09
4.76722e-12
1.37746e-05
1.35083e-08
1.68924e-13
-2.97349e-09
1.18102e-08
-2.97349e-09
4.48457e-12
1.18102e-08
4.97926e-14
-4.8877e-06
4.88429e-06
-4.8877e-06
4.67043e-12
4.88429e-06
1.70786e-13
4.39556e-12
7.41738e-12
-1.37846e-05
-3.40876e-09
1.37745e-05
1.35111e-08
-1.37845e-05
-3.4108e-09
6.33053e-12
1.37744e-05
1.35158e-08
6.9374e-12
-2.97474e-09
1.18128e-08
-2.97666e-09
6.03165e-12
1.18172e-08
7.71306e-12
-4.88767e-06
4.88426e-06
-4.88763e-06
8.28316e-12
4.88422e-06
7.1828e-12
7.68786e-12
7.54216e-12
-1.37843e-05
-3.41651e-09
1.37742e-05
1.35181e-08
-1.37842e-05
-3.41341e-09
1.37741e-05
1.35229e-08
6.86497e-12
-2.98177e-09
1.18196e-08
-2.97917e-09
1.18238e-08
2.68452e-12
-4.88759e-06
4.88418e-06
-4.88756e-06
4.88415e-06
2.6574e-12
-8.7688e-12
-1.37629e-05
-4.30596e-09
1.37502e-05
1.69983e-08
-1.3763e-05
-4.30999e-09
-6.93434e-12
1.37503e-05
1.69927e-08
-8.08349e-12
-3.80519e-09
1.50466e-08
-3.80869e-09
-6.59431e-12
1.50415e-08
-2.8195e-12
-4.88035e-06
4.87604e-06
-4.88037e-06
-9.48459e-12
4.87607e-06
-2.75948e-12
-8.79745e-12
-8.39772e-12
-1.37631e-05
-4.30318e-09
1.37504e-05
1.69905e-08
-1.37633e-05
-4.30095e-09
-5.4699e-12
1.37506e-05
1.69852e-08
-7.84654e-12
-3.80251e-09
1.50393e-08
-3.80039e-09
-5.0815e-12
1.50343e-08
-8.81718e-12
-4.88042e-06
4.87611e-06
-4.88046e-06
-5.37804e-12
4.87615e-06
-8.18218e-12
-4.97353e-12
-1.07229e-13
-1.37634e-05
-4.29946e-09
1.37507e-05
1.69821e-08
-1.37634e-05
-4.29946e-09
5.27154e-12
1.37507e-05
1.69821e-08
-9.2018e-14
-3.79898e-09
1.50314e-08
-3.79897e-09
4.90978e-12
1.50314e-08
-1.23656e-13
-4.88049e-06
4.87618e-06
-4.88049e-06
5.1424e-12
4.87618e-06
-8.41909e-14
4.81335e-12
8.24568e-12
-1.37633e-05
-4.30094e-09
1.37506e-05
1.69852e-08
-1.37631e-05
-4.30317e-09
6.88233e-12
1.37504e-05
1.69905e-08
7.69772e-12
-3.80036e-09
1.50343e-08
-3.80248e-09
6.49645e-12
1.50392e-08
8.62265e-12
-4.88046e-06
4.87615e-06
-4.88042e-06
9.35685e-12
4.87611e-06
8.04536e-12
8.6961e-12
8.88546e-12
-1.3763e-05
-4.31001e-09
1.37503e-05
1.69926e-08
-1.37629e-05
-4.30593e-09
1.37502e-05
1.69983e-08
8.0855e-12
-3.80867e-09
1.50414e-08
-3.80515e-09
1.50465e-08
2.76129e-12
-4.88037e-06
4.87607e-06
-4.88035e-06
4.87604e-06
2.6819e-12
-1.05483e-11
-1.37362e-05
-5.33689e-09
1.37206e-05
2.09957e-08
-1.37363e-05
-5.3421e-09
-7.72853e-12
1.37207e-05
2.0989e-08
-9.56825e-12
-4.75606e-09
1.87412e-08
-4.76058e-09
-7.29117e-12
1.87351e-08
-2.90345e-12
-4.87129e-06
4.86596e-06
-4.87132e-06
-1.06727e-11
4.86598e-06
-2.90278e-12
-1.00194e-11
-9.32041e-12
-1.37365e-05
-5.33407e-09
1.37208e-05
2.0987e-08
-1.37366e-05
-5.33164e-09
-5.9782e-12
1.37209e-05
2.09812e-08
-8.79917e-12
-4.75324e-09
1.87331e-08
-4.75094e-09
-5.69717e-12
1.87276e-08
-9.79656e-12
-4.87136e-06
4.86602e-06
-4.8714e-06
-5.86321e-12
4.86606e-06
-9.24704e-12
-5.59649e-12
1.04259e-13
-1.37367e-05
-5.33002e-09
1.3721e-05
2.09778e-08
-1.37367e-05
-5.33003e-09
6.17439e-12
1.3721e-05
2.09778e-08
-3.82456e-14
-4.7494e-09
1.87244e-08
-4.7494e-09
5.62699e-12
1.87244e-08
7.80955e-14
-4.87143e-06
4.86609e-06
-4.87143e-06
6.01051e-12
4.86609e-06
-5.7897e-14
5.48497e-12
9.47713e-12
-1.37366e-05
-5.33166e-09
1.37209e-05
2.09812e-08
-1.37365e-05
-5.33409e-09
7.79421e-12
1.37208e-05
2.09871e-08
8.73251e-12
-4.75094e-09
1.87276e-08
-4.75325e-09
7.23385e-12
1.87331e-08
9.92875e-12
-4.8714e-06
4.86606e-06
-4.87136e-06
1.07828e-11
4.86602e-06
9.14493e-12
9.93207e-12
1.05e-11
-1.37363e-05
-5.34214e-09
1.37207e-05
2.09891e-08
-1.37363e-05
-5.33697e-09
1.37206e-05
2.09958e-08
9.55759e-12
-4.76061e-09
1.87352e-08
-4.75607e-09
1.87412e-08
2.96651e-12
-4.87132e-06
4.86598e-06
-4.87129e-06
4.86596e-06
2.81404e-12
-1.2184e-11
-1.37035e-05
-6.52876e-09
1.36844e-05
2.5597e-08
-1.37036e-05
-6.53524e-09
-8.47704e-12
1.36845e-05
2.55892e-08
-1.11576e-11
-5.85246e-09
2.29827e-08
-5.8582e-09
-7.99106e-12
2.29756e-08
-2.98562e-12
-4.86011e-06
4.85358e-06
-4.86013e-06
-1.19695e-11
4.85361e-06
-2.82901e-12
-1.11733e-11
-1.03389e-11
-1.37037e-05
-6.5259e-09
1.36846e-05
2.55873e-08
-1.37038e-05
-6.5233e-09
-6.63413e-12
1.36848e-05
2.5581e-08
-9.7151e-12
-5.84962e-09
2.29737e-08
-5.84713e-09
-6.22815e-12
2.29677e-08
-1.08935e-11
-4.86017e-06
4.85365e-06
-4.86021e-06
-6.46414e-12
4.85369e-06
-1.02272e-11
-6.09052e-12
1.50799e-13
-1.37039e-05
-6.52156e-09
1.36848e-05
2.55774e-08
-1.37039e-05
-6.52158e-09
6.92681e-12
1.36848e-05
2.55774e-08
1.41412e-13
-5.84547e-09
2.29642e-08
-5.84548e-09
6.49869e-12
2.29642e-08
1.70499e-13
-4.86024e-06
4.85371e-06
-4.86024e-06
6.79326e-12
4.85371e-06
1.34222e-13
6.34889e-12
1.05836e-11
-1.37038e-05
-6.52334e-09
1.36848e-05
2.55811e-08
-1.37037e-05
-6.52594e-09
8.6044e-12
1.36846e-05
2.55875e-08
9.94639e-12
-5.84716e-09
2.29678e-08
-5.84965e-09
8.14831e-12
2.29738e-08
1.11805e-11
-4.86021e-06
4.85369e-06
-4.86017e-06
1.21737e-11
4.85365e-06
1.04614e-11
1.1387e-11
1.21713e-11
-1.37036e-05
-6.53531e-09
1.36845e-05
2.55893e-08
-1.37035e-05
-6.52888e-09
1.36844e-05
2.55971e-08
1.1228e-11
-5.85825e-09
2.29757e-08
-5.85257e-09
2.29828e-08
3.02768e-12
-4.86013e-06
4.85361e-06
-4.86011e-06
4.85358e-06
3.0296e-12
-1.40116e-11
-1.36637e-05
-7.91184e-09
1.36407e-05
3.0916e-08
-1.36637e-05
-7.91984e-09
-9.16465e-12
1.36408e-05
3.0907e-08
-1.28475e-11
-7.12762e-09
2.78957e-08
-7.13473e-09
-8.71992e-12
2.78875e-08
-2.87724e-12
-4.84646e-06
4.83855e-06
-4.84648e-06
-1.32179e-11
4.83857e-06
-2.77622e-12
-1.24352e-11
-1.1286e-11
-1.36639e-05
-7.90905e-09
1.36409e-05
3.09054e-08
-1.3664e-05
-7.90629e-09
-7.23222e-12
1.3641e-05
3.08985e-08
-1.07202e-11
-7.12478e-09
2.78858e-08
-7.12212e-09
-6.86831e-12
2.78793e-08
-1.19394e-11
-4.84652e-06
4.83861e-06
-4.84656e-06
-7.02966e-12
4.83865e-06
-1.12975e-11
-6.66769e-12
2.29306e-13
-1.36641e-05
-7.90443e-09
1.36411e-05
3.08946e-08
-1.36641e-05
-7.90445e-09
7.67621e-12
1.36411e-05
3.08946e-08
2.10211e-13
-7.12034e-09
2.78755e-08
-7.12036e-09
7.27081e-12
2.78755e-08
2.64032e-13
-4.84658e-06
4.83867e-06
-4.84658e-06
7.52748e-12
4.83867e-06
2.42434e-13
7.12953e-12
1.16573e-11
-1.3664e-05
-7.90632e-09
1.3641e-05
3.08986e-08
-1.36639e-05
-7.90909e-09
9.37993e-12
1.36409e-05
3.09054e-08
1.10666e-11
-7.12216e-09
2.78794e-08
-7.12482e-09
8.97054e-12
2.78859e-08
1.23624e-11
-4.84656e-06
4.83865e-06
-4.84652e-06
1.35168e-11
4.83861e-06
1.17016e-11
1.27742e-11
1.40117e-11
-1.36637e-05
-7.9199e-09
1.36408e-05
3.09071e-08
-1.36637e-05
-7.91194e-09
1.36407e-05
3.0916e-08
1.299e-11
-7.13479e-09
2.78877e-08
-7.12775e-09
2.78958e-08
2.97678e-12
-4.84648e-06
4.83857e-06
-4.84646e-06
4.83855e-06
3.06482e-12
-1.56751e-11
-1.36158e-05
-9.50932e-09
1.35882e-05
3.70378e-08
-1.36158e-05
-9.51905e-09
-9.62451e-12
1.35883e-05
3.70276e-08
-1.46292e-11
-8.59759e-09
3.35377e-08
-8.60628e-09
-9.25698e-12
3.35284e-08
-2.50696e-12
-4.82995e-06
4.82045e-06
-4.82998e-06
-1.43767e-11
4.82047e-06
-2.60444e-12
-1.36091e-11
-1.21133e-11
-1.36159e-05
-9.50667e-09
1.35884e-05
3.70262e-08
-1.36161e-05
-9.50375e-09
-7.82234e-12
1.35886e-05
3.70189e-08
-1.15388e-11
-8.59483e-09
3.35269e-08
-8.59202e-09
-7.41011e-12
3.35199e-08
-1.29453e-11
-4.83001e-06
4.82051e-06
-4.83005e-06
-7.65358e-12
4.82054e-06
-1.22789e-11
-7.23605e-12
1.89107e-13
-1.36161e-05
-9.50178e-09
1.35886e-05
3.70146e-08
-1.36161e-05
-9.50179e-09
8.1713e-12
1.35886e-05
3.70146e-08
2.49965e-13
-8.59013e-09
3.35158e-08
-8.59014e-09
7.87954e-12
3.35158e-08
1.68533e-13
-4.83007e-06
4.82056e-06
-4.83007e-06
7.97282e-12
4.82056e-06
2.43633e-13
7.69883e-12
1.23815e-11
-1.36161e-05
-9.50377e-09
1.35886e-05
3.70189e-08
-1.36159e-05
-9.5067e-09
9.78956e-12
1.35884e-05
3.70263e-08
1.19322e-11
-8.59204e-09
3.35199e-08
-8.59487e-09
9.52365e-12
3.35269e-08
1.3213e-11
-4.83005e-06
4.82054e-06
-4.83001e-06
1.4576e-11
4.82051e-06
1.26851e-11
1.39305e-11
1.58141e-11
-1.36158e-05
-9.51912e-09
1.35883e-05
3.70277e-08
-1.36158e-05
-9.50939e-09
1.35882e-05
3.70379e-08
1.47503e-11
-8.60634e-09
3.35284e-08
-8.59769e-09
3.35377e-08
2.62225e-12
-4.82998e-06
4.82047e-06
-4.82995e-06
4.82045e-06
2.81094e-12
-1.77613e-11
-1.35585e-05
-1.13473e-08
1.35258e-05
4.40591e-08
-1.35586e-05
-1.1359e-08
-1.03175e-11
1.35259e-05
4.40476e-08
-1.65382e-11
-1.02993e-08
4.0048e-08
-1.03098e-08
-9.84052e-12
4.00375e-08
-2.16416e-12
-4.81015e-06
4.7988e-06
-4.81017e-06
-1.57266e-11
4.79883e-06
-2.39835e-12
-1.49014e-11
-1.31458e-11
-1.35587e-05
-1.13449e-08
1.3526e-05
4.40465e-08
-1.35588e-05
-1.13418e-08
-8.56325e-12
1.35261e-05
4.40386e-08
-1.24786e-11
-1.02967e-08
4.00362e-08
-1.02937e-08
-8.1153e-12
4.00287e-08
-1.41231e-11
-4.81021e-06
4.79886e-06
-4.81024e-06
-8.37397e-12
4.79889e-06
-1.33969e-11
-7.95328e-12
1.007e-13
-1.35589e-05
-1.13397e-08
1.35262e-05
4.4034e-08
-1.35589e-05
-1.13397e-08
8.75385e-12
1.35262e-05
4.4034e-08
1.06246e-13
-1.02917e-08
4.00243e-08
-1.02917e-08
8.32232e-12
4.00243e-08
9.15623e-14
-4.81026e-06
4.79892e-06
-4.81026e-06
8.54272e-12
4.79892e-06
9.02386e-14
8.13144e-12
1.32951e-11
-1.35588e-05
-1.13418e-08
1.35261e-05
4.40386e-08
-1.35587e-05
-1.13449e-08
1.04295e-11
1.3526e-05
4.40466e-08
1.26477e-11
-1.02937e-08
4.00287e-08
-1.02967e-08
9.94795e-12
4.00363e-08
1.42669e-11
-4.81024e-06
4.79889e-06
-4.81021e-06
1.58572e-11
4.79886e-06
1.35624e-11
1.50231e-11
1.79683e-11
-1.35586e-05
-1.13591e-08
1.35259e-05
4.40477e-08
-1.35585e-05
-1.13473e-08
1.35258e-05
4.40593e-08
1.66354e-11
-1.03099e-08
4.00375e-08
-1.02993e-08
4.00481e-08
2.30262e-12
-4.81017e-06
4.79883e-06
-4.81015e-06
4.7988e-06
2.38107e-12
-2.01721e-11
-1.34906e-05
-1.34503e-08
1.3452e-05
5.20696e-08
-1.34907e-05
-1.34643e-08
-1.10675e-11
1.34521e-05
5.20566e-08
-1.886e-11
-1.22435e-08
4.74631e-08
-1.22561e-08
-1.06292e-11
4.74513e-08
-1.79601e-12
-4.78656e-06
4.77311e-06
-4.78658e-06
-1.71268e-11
4.77314e-06
-2.10433e-12
-1.62946e-11
-1.41679e-11
-1.34908e-05
-1.34482e-08
1.34522e-05
5.20557e-08
-1.34909e-05
-1.3445e-08
-9.24987e-12
1.34523e-05
5.20472e-08
-1.35319e-11
-1.22412e-08
4.74503e-08
-1.22381e-08
-8.81541e-12
4.74422e-08
-1.52952e-11
-4.78662e-06
4.77317e-06
-4.78665e-06
-9.0368e-12
4.7732e-06
-1.45664e-11
-8.61346e-12
1.08741e-13
-1.3491e-05
-1.34428e-08
1.34524e-05
5.20424e-08
-1.3491e-05
-1.34428e-08
9.46031e-12
1.34524e-05
5.20424e-08
1.18407e-13
-1.2236e-08
4.74375e-08
-1.2236e-08
9.03402e-12
4.74375e-08
1.09528e-13
-4.78667e-06
4.77322e-06
-4.78667e-06
9.24136e-12
4.77322e-06
1.09744e-13
8.80939e-12
1.43442e-11
-1.34909e-05
-1.3445e-08
1.34523e-05
5.20473e-08
-1.34908e-05
-1.34483e-08
1.11972e-11
1.34522e-05
5.20558e-08
1.36951e-11
-1.22381e-08
4.74422e-08
-1.22413e-08
1.07036e-11
4.74504e-08
1.54631e-11
-4.78665e-06
4.7732e-06
-4.78662e-06
1.72602e-11
4.77317e-06
1.47124e-11
1.6364e-11
2.03716e-11
-1.34907e-05
-1.34644e-08
1.34521e-05
5.20567e-08
-1.34906e-05
-1.34503e-08
1.3452e-05
5.20698e-08
1.89089e-11
-1.22562e-08
4.74514e-08
-1.22436e-08
4.74633e-08
1.89627e-12
-4.78659e-06
4.77314e-06
-4.78656e-06
4.77311e-06
2.00838e-12
-2.27441e-11
-1.34106e-05
-1.58494e-08
1.33653e-05
6.11842e-08
-1.34106e-05
-1.58661e-08
-1.17329e-11
1.33653e-05
6.11696e-08
-2.12848e-11
-1.44665e-08
5.59182e-08
-1.44815e-08
-1.13121e-11
5.59048e-08
-1.19837e-12
-4.75865e-06
4.7428e-06
-4.75867e-06
-1.8451e-11
4.74282e-06
-1.57672e-12
-1.7625e-11
-1.5115e-11
-1.34107e-05
-1.5848e-08
1.33654e-05
6.11689e-08
-1.34109e-05
-1.58445e-08
-9.91299e-12
1.33655e-05
6.11599e-08
-1.45041e-11
-1.44646e-08
5.59041e-08
-1.44613e-08
-9.49337e-12
5.58954e-08
-1.64113e-11
-4.7587e-06
4.74285e-06
-4.75873e-06
-9.69686e-12
4.74288e-06
-1.56974e-11
-9.27609e-12
5.73061e-14
-1.34109e-05
-1.58422e-08
1.33656e-05
6.11547e-08
-1.34109e-05
-1.58422e-08
1.00165e-11
1.33656e-05
6.11547e-08
7.18822e-14
-1.44591e-08
5.58904e-08
-1.44591e-08
9.62588e-12
5.58905e-08
5.73994e-14
-4.75875e-06
4.7429e-06
-4.75875e-06
9.80514e-12
4.7429e-06
7.78103e-14
9.41803e-12
1.51794e-11
-1.34109e-05
-1.58445e-08
1.33655e-05
6.116e-08
-1.34107e-05
-1.5848e-08
1.17393e-11
1.33654e-05
6.11692e-08
1.45968e-11
-1.44614e-08
5.58955e-08
-1.44647e-08
1.13382e-11
5.59042e-08
1.65129e-11
-4.75873e-06
4.74288e-06
-4.7587e-06
1.85538e-11
4.74285e-06
1.58163e-11
1.77137e-11
2.28405e-11
-1.34106e-05
-1.58662e-08
1.33653e-05
6.11698e-08
-1.34106e-05
-1.58496e-08
1.33653e-05
6.11845e-08
2.13259e-11
-1.44817e-08
5.5905e-08
-1.44666e-08
5.59184e-08
1.27087e-12
-4.75867e-06
4.74282e-06
-4.75865e-06
4.7428e-06
1.5492e-12
-2.54288e-11
-1.33168e-05
-1.8548e-08
1.3264e-05
7.14094e-08
-1.33169e-05
-1.85675e-08
-1.23577e-11
1.3264e-05
7.1393e-08
-2.38519e-11
-1.69883e-08
6.54848e-08
-1.7006e-08
-1.19054e-11
6.54698e-08
-3.60651e-13
-4.72581e-06
4.70726e-06
-4.72583e-06
-1.97473e-11
4.70728e-06
-8.21114e-13
-1.88901e-11
-1.60315e-11
-1.3317e-05
-1.85471e-08
1.32641e-05
7.13927e-08
-1.33171e-05
-1.85435e-08
-1.05135e-11
1.32642e-05
7.1383e-08
-1.54016e-11
-1.6987e-08
6.54693e-08
-1.69835e-08
-1.01135e-11
6.54601e-08
-1.74962e-11
-4.72586e-06
4.70731e-06
-4.72589e-06
-1.02756e-11
4.70734e-06
-1.67707e-11
-9.88701e-12
1.37263e-13
-1.33171e-05
-1.85411e-08
1.32643e-05
7.13775e-08
-1.33171e-05
-1.85411e-08
1.07862e-11
1.32643e-05
7.13775e-08
7.91362e-14
-1.69812e-08
6.54548e-08
-1.69812e-08
1.02659e-11
6.54548e-08
1.44947e-13
-4.72591e-06
4.70735e-06
-4.72591e-06
1.05598e-11
4.70735e-06
9.33537e-14
1.00673e-11
1.62592e-11
-1.33171e-05
-1.85435e-08
1.32642e-05
7.13832e-08
-1.3317e-05
-1.85472e-08
1.2502e-11
1.32641e-05
7.13929e-08
1.55318e-11
-1.69835e-08
6.54602e-08
-1.69871e-08
1.19824e-11
6.54696e-08
1.77477e-11
-4.72589e-06
4.70734e-06
-4.72586e-06
1.99466e-11
4.70731e-06
1.6949e-11
1.90535e-11
2.56009e-11
-1.33169e-05
-1.85677e-08
1.3264e-05
7.13933e-08
-1.33168e-05
-1.85481e-08
1.3264e-05
7.14097e-08
2.39194e-11
-1.70062e-08
6.547e-08
-1.69884e-08
6.54851e-08
4.78453e-13
-4.72583e-06
4.70729e-06
-4.72581e-06
4.70727e-06
8.75956e-13
-2.84252e-11
-1.32076e-05
-2.15835e-08
1.31463e-05
8.28867e-08
-1.32076e-05
-2.16064e-08
-1.30401e-11
1.31464e-05
8.28684e-08
-2.66071e-11
-1.98284e-08
7.62335e-08
-1.98492e-08
-1.25572e-11
7.62167e-08
6.04376e-13
-4.68744e-06
4.66585e-06
-4.68746e-06
-2.10956e-11
4.66587e-06
1.06884e-13
-2.0198e-11
-1.69638e-11
-1.32077e-05
-2.15836e-08
1.31464e-05
8.28683e-08
-1.32078e-05
-2.15797e-08
-1.10967e-11
1.31465e-05
8.28581e-08
-1.63264e-11
-1.98278e-08
7.62166e-08
-1.98241e-08
-1.06862e-11
7.62067e-08
-1.86002e-11
-4.68748e-06
4.66589e-06
-4.68751e-06
-1.08374e-11
4.66592e-06
-1.78504e-11
-1.04312e-11
2.65027e-13
-1.32079e-05
-2.15772e-08
1.31466e-05
8.28522e-08
-1.32079e-05
-2.15773e-08
1.16064e-11
1.31466e-05
8.28523e-08
2.25211e-13
-1.98217e-08
7.62011e-08
-1.98217e-08
1.11169e-11
7.62011e-08
2.7417e-13
-4.68752e-06
4.66593e-06
-4.68752e-06
1.13571e-11
4.66593e-06
2.36226e-13
1.08691e-11
1.73829e-11
-1.32078e-05
-2.15798e-08
1.31465e-05
8.28583e-08
-1.32077e-05
-2.15837e-08
1.32966e-11
1.31464e-05
8.28687e-08
1.66887e-11
-1.98241e-08
7.62069e-08
-1.98279e-08
1.2803e-11
7.62169e-08
1.90334e-11
-4.68751e-06
4.66592e-06
-4.68748e-06
2.1397e-11
4.6659e-06
1.82134e-11
2.04516e-11
2.85789e-11
-1.32076e-05
-2.16066e-08
1.31464e-05
8.28687e-08
-1.32076e-05
-2.15838e-08
1.31463e-05
8.28871e-08
2.67798e-11
-1.98493e-08
7.62171e-08
-1.98286e-08
7.62339e-08
-4.71871e-13
-4.68746e-06
4.66587e-06
-4.68744e-06
4.66585e-06
-1.58825e-14
-3.14031e-11
-1.30811e-05
-2.49658e-08
1.30105e-05
9.5648e-08
-1.30812e-05
-2.49923e-08
-1.36193e-11
1.30105e-05
9.56275e-08
-2.96282e-11
-2.30048e-08
8.82289e-08
-2.3029e-08
-1.31594e-11
8.82101e-08
1.97114e-12
-4.64284e-06
4.61788e-06
-4.64286e-06
-2.23785e-11
4.61789e-06
1.2622e-12
-2.1481e-11
-1.78563e-11
-1.30812e-05
-2.49668e-08
1.30106e-05
9.56277e-08
-1.30813e-05
-2.49627e-08
-1.17088e-11
1.30107e-05
9.56168e-08
-1.71881e-11
-2.3005e-08
8.82103e-08
-2.30011e-08
-1.12355e-11
8.81998e-08
-1.97041e-11
-4.64289e-06
4.61792e-06
-4.64291e-06
-1.14602e-11
4.61794e-06
-1.89194e-11
-1.09956e-11
2.90048e-13
-1.30814e-05
-2.49601e-08
1.30107e-05
9.56105e-08
-1.30814e-05
-2.49601e-08
1.22413e-11
1.30107e-05
9.56106e-08
3.29937e-13
-2.29986e-08
8.81938e-08
-2.29986e-08
1.18483e-11
8.81938e-08
2.70724e-13
-4.64292e-06
4.61795e-06
-4.64292e-06
1.19591e-11
4.61795e-06
3.12141e-13
1.15818e-11
1.82512e-11
-1.30813e-05
-2.49628e-08
1.30107e-05
9.5617e-08
-1.30812e-05
-2.49669e-08
1.38e-11
1.30106e-05
9.56281e-08
1.76798e-11
-2.30012e-08
8.82e-08
-2.30052e-08
1.34625e-11
8.82106e-08
2.0096e-11
-4.64291e-06
4.61794e-06
-4.64289e-06
2.26354e-11
4.61792e-06
1.94179e-11
2.18619e-11
3.15676e-11
-1.30812e-05
-2.49925e-08
1.30105e-05
9.56279e-08
-1.30811e-05
-2.49661e-08
1.30105e-05
9.56482e-08
2.97693e-11
-2.30292e-08
8.82105e-08
-2.30051e-08
8.82292e-08
-1.77971e-12
-4.64286e-06
4.61789e-06
-4.64285e-06
4.61788e-06
-1.02347e-12
-3.41861e-11
-1.29355e-05
-2.87048e-08
1.28545e-05
1.09729e-07
-1.29355e-05
-2.87354e-08
-1.4256e-11
1.28545e-05
1.09706e-07
-3.26007e-11
-2.65305e-08
1.01517e-07
-2.65585e-08
-1.38066e-11
1.01496e-07
3.55108e-12
-4.59134e-06
4.56263e-06
-4.59136e-06
-2.38033e-11
4.56265e-06
2.50794e-12
-2.28549e-11
-1.89579e-11
-1.29356e-05
-2.8707e-08
1.28546e-05
1.09707e-07
-1.29357e-05
-2.87027e-08
-1.26048e-11
1.28547e-05
1.09695e-07
-1.82092e-11
-2.65318e-08
1.01496e-07
-2.65276e-08
-1.20123e-11
1.01485e-07
-2.10324e-11
-4.59138e-06
4.56267e-06
-4.5914e-06
-1.23388e-11
4.56269e-06
-2.01423e-11
-1.17618e-11
2.38641e-14
-1.29358e-05
-2.87e-08
1.28547e-05
1.09688e-07
-1.29358e-05
-2.87e-08
1.26456e-11
1.28548e-05
1.09688e-07
1.76251e-13
-2.6525e-08
1.01479e-07
-2.6525e-08
1.23282e-11
1.01479e-07
2.29228e-14
-4.59141e-06
4.5627e-06
-4.59141e-06
1.23672e-11
4.5627e-06
1.52217e-13
1.20339e-11
1.89698e-11
-1.29357e-05
-2.87027e-08
1.28547e-05
1.09695e-07
-1.29356e-05
-2.87071e-08
1.42382e-11
1.28546e-05
1.09707e-07
1.84139e-11
-2.65277e-08
1.01485e-07
-2.65319e-08
1.38443e-11
1.01496e-07
2.10302e-11
-4.5914e-06
4.56269e-06
-4.59138e-06
2.37802e-11
4.56267e-06
2.03321e-11
2.29211e-11
3.47649e-11
-1.29355e-05
-2.87356e-08
1.28546e-05
1.09706e-07
-1.29355e-05
-2.87053e-08
1.28545e-05
1.09729e-07
3.26984e-11
-2.65587e-08
1.01496e-07
-2.6531e-08
1.01517e-07
-3.35065e-12
-4.59136e-06
4.56265e-06
-4.59134e-06
4.56263e-06
-2.6779e-12
-3.77583e-11
-1.27689e-05
-3.2796e-08
1.26766e-05
1.25109e-07
-1.27689e-05
-3.28309e-08
-1.48635e-11
1.26766e-05
1.25083e-07
-3.58966e-11
-3.04003e-08
1.16073e-07
-3.04323e-08
-1.44628e-11
1.1605e-07
5.10382e-12
-4.53222e-06
4.49942e-06
-4.53224e-06
-2.52205e-11
4.49944e-06
3.83879e-12
-2.43196e-11
-1.98875e-11
-1.2769e-05
-3.27994e-08
1.26767e-05
1.25084e-07
-1.2769e-05
-3.27948e-08
-1.33098e-11
1.26768e-05
1.25072e-07
-1.92514e-11
-3.04027e-08
1.16051e-07
-3.03982e-08
-1.28657e-11
1.16039e-07
-2.22536e-11
-4.53226e-06
4.49945e-06
-4.53227e-06
-1.30912e-11
4.49947e-06
-2.14551e-11
-1.26229e-11
-9.15514e-14
-1.27691e-05
-3.27919e-08
1.26768e-05
1.25065e-07
-1.27691e-05
-3.2792e-08
1.31544e-11
1.26768e-05
1.25065e-07
-8.88001e-14
-3.03955e-08
1.16032e-07
-3.03955e-08
1.27152e-11
1.16032e-07
-1.23389e-13
-4.53229e-06
4.49948e-06
-4.53229e-06
1.28728e-11
4.49948e-06
-9.3511e-14
1.24409e-11
1.97809e-11
-1.27691e-05
-3.27948e-08
1.26768e-05
1.25072e-07
-1.2769e-05
-3.27995e-08
1.48117e-11
1.26767e-05
1.25084e-07
1.9122e-11
-3.03983e-08
1.16039e-07
-3.04028e-08
1.42978e-11
1.16051e-07
2.21008e-11
-4.53228e-06
4.49947e-06
-4.53226e-06
2.51452e-11
4.49945e-06
2.12722e-11
2.40776e-11
3.83566e-11
-1.27689e-05
-3.28311e-08
1.26766e-05
1.25084e-07
-1.27689e-05
-3.27964e-08
1.26766e-05
1.25109e-07
3.59638e-11
-3.04325e-08
1.1605e-07
-3.04008e-08
1.16073e-07
-4.81847e-12
-4.53224e-06
4.49944e-06
-4.53222e-06
4.49942e-06
-4.37368e-12
-4.22347e-11
-1.25793e-05
-3.72422e-08
1.24748e-05
1.41797e-07
-1.25793e-05
-3.72815e-08
-1.5865e-11
1.24748e-05
1.4177e-07
-3.97432e-11
-3.46351e-08
1.3198e-07
-3.46714e-08
-1.52406e-11
1.31954e-07
6.14683e-12
-4.46478e-06
4.42753e-06
-4.46479e-06
-2.68506e-11
4.42754e-06
5.24975e-12
-2.58244e-11
-2.10086e-11
-1.25794e-05
-3.72467e-08
1.24749e-05
1.41771e-07
-1.25794e-05
-3.72418e-08
-1.39803e-11
1.24749e-05
1.41757e-07
-2.02691e-11
-3.46387e-08
1.31955e-07
-3.46339e-08
-1.35569e-11
1.31942e-07
-2.35504e-11
-4.46481e-06
4.42756e-06
-4.46482e-06
-1.37055e-11
4.42757e-06
-2.27059e-11
-1.33018e-11
7.01352e-14
-1.25795e-05
-3.72389e-08
1.2475e-05
1.4175e-07
-1.25795e-05
-3.72389e-08
1.41069e-11
1.2475e-05
1.4175e-07
-8.17587e-14
-3.46311e-08
1.31935e-07
-3.46311e-08
1.34083e-11
1.31935e-07
7.24455e-14
-4.46483e-06
4.42758e-06
-4.46483e-06
1.38285e-11
4.42758e-06
-6.55841e-14
1.31707e-11
2.10835e-11
-1.25794e-05
-3.72419e-08
1.24749e-05
1.41758e-07
-1.25794e-05
-3.72468e-08
1.58662e-11
1.24749e-05
1.41771e-07
2.01273e-11
-3.4634e-08
1.31942e-07
-3.46387e-08
1.5053e-11
1.31955e-07
2.36356e-11
-4.46482e-06
4.42757e-06
-4.46481e-06
2.69323e-11
4.42756e-06
2.25857e-11
2.56943e-11
4.25476e-11
-1.25793e-05
-3.72816e-08
1.24748e-05
1.4177e-07
-1.25793e-05
-3.72424e-08
1.24748e-05
1.41798e-07
3.98061e-11
-3.46716e-08
1.31954e-07
-3.46355e-08
1.31979e-07
-6.04096e-12
-4.4648e-06
4.42755e-06
-4.46478e-06
4.42753e-06
-5.58935e-12
-4.75244e-11
-1.23649e-05
-4.20264e-08
1.22473e-05
1.5973e-07
-1.23649e-05
-4.20702e-08
-1.68989e-11
1.22473e-05
1.597e-07
-4.43947e-11
-3.92061e-08
1.49123e-07
-3.92466e-08
-1.62723e-11
1.49095e-07
7.15422e-12
-4.38832e-06
4.34628e-06
-4.38833e-06
-2.84315e-11
4.3463e-06
6.66652e-12
-2.73472e-11
-2.20008e-11
-1.2365e-05
-4.20321e-08
1.22473e-05
1.59701e-07
-1.2365e-05
-4.20268e-08
-1.44686e-11
1.22474e-05
1.59687e-07
-2.13071e-11
-3.92106e-08
1.49096e-07
-3.92055e-08
-1.40609e-11
1.49082e-07
-2.46878e-11
-4.38834e-06
4.34631e-06
-4.38835e-06
-1.41386e-11
4.34632e-06