/*--------------------------------*- C++ -*----------------------------------*\
  =========                 |
  \\      /  F ield         | OpenFOAM: The Open Source CFD Toolbox
   \\    /   O peration     | Website:  https://openfoam.org
    \\  /    A nd           | Version:  9
     \\/     M anipulation  |
\*---------------------------------------------------------------------------*/
FoamFile
{
    format      ascii;
    class       volVectorField;
    location    "0.4";
    object      U;
}
// * * * * * * * * * * * * * * * * * * * * * * * * * * * * * * * * * * * * * //

dimensions      [0 1 -1 0 0 0 0];

internalField   nonuniform List<vector> 
36360
(
(2.02944e-06 -0.0262771 -0.936519)
(2.00661e-06 -0.0262772 -6.20553e-09)
(2.90926e-06 -0.0262824 -0.945397)
(2.93078e-06 -0.0262825 6.11067e-09)
(2.9983e-07 -0.00931518 -0.924082)
(2.84087e-07 -0.00931517 -4.79579e-09)
(7.13163e-07 -0.00931802 -0.9325)
(7.17984e-07 -0.00931807 5.6822e-09)
(2.00033e-06 -0.0262774 -1.14848e-09)
(1.99848e-06 -0.0262777 -8.87638e-10)
(2.93679e-06 -0.0262828 1.45788e-12)
(2.93796e-06 -0.0262831 -3.84552e-10)
(2.80645e-07 -0.00931524 -1.38152e-09)
(2.79964e-07 -0.00931532 -9.67838e-10)
(7.19118e-07 -0.00931815 8.19315e-11)
(7.19245e-07 -0.00931824 -3.45375e-10)
(1.99844e-06 -0.0262779 -5.00287e-10)
(2.00035e-06 -0.0262779 2.9654e-11)
(2.939e-06 -0.0262832 -1.49795e-10)
(2.94156e-06 -0.0262832 1.29879e-10)
(2.79867e-07 -0.00931537 -5.05865e-10)
(2.80231e-07 -0.00931537 4.64043e-11)
(7.19439e-07 -0.00931829 -1.34065e-10)
(7.20095e-07 -0.0093183 1.3735e-10)
(2.00401e-06 -0.0262777 4.73679e-10)
(2.00894e-06 -0.0262775 9.40837e-10)
(2.9454e-06 -0.0262831 3.20713e-10)
(2.94841e-06 -0.0262828 -3.07197e-11)
(2.81027e-07 -0.00931532 5.24852e-10)
(2.82318e-07 -0.00931525 1.17785e-09)
(7.21159e-07 -0.00931825 2.95799e-10)
(7.22117e-07 -0.00931818 -1.16851e-10)
(2.01734e-06 -0.0262772 6.29295e-09)
(2.04139e-06 -0.0262772 0.936519)
(2.94539e-06 -0.0262826 -6.10439e-09)
(2.9254e-06 -0.0262824 0.945397)
(2.8611e-07 -0.00931519 4.77991e-09)
(3.02019e-07 -0.00931519 0.924082)
(7.21748e-07 -0.0093181 -5.7438e-09)
(7.1726e-07 -0.00931805 0.9325)
(2.31375e-06 -0.0262701 -0.935795)
(2.30965e-06 -0.0262703 -3.37634e-09)
(1.89615e-06 -0.0262739 -0.935982)
(1.89144e-06 -0.0262741 -3.06915e-09)
(1.85546e-07 -0.00931289 -0.923377)
(1.78276e-07 -0.00931295 -2.87807e-09)
(1.71565e-07 -0.00931407 -0.923559)
(1.65283e-07 -0.00931414 -2.99734e-09)
(2.30669e-06 -0.0262705 -2.66608e-09)
(2.3045e-06 -0.0262708 -1.96008e-09)
(1.89074e-06 -0.0262744 -1.49583e-09)
(1.89011e-06 -0.0262747 -1.37627e-09)
(1.7575e-07 -0.00931304 -2.75254e-09)
(1.75048e-07 -0.00931312 -2.01575e-09)
(1.64615e-07 -0.00931422 -1.81269e-09)
(1.64646e-07 -0.00931431 -1.434e-09)
(2.30339e-06 -0.026271 -8.41905e-10)
(2.30418e-06 -0.026271 5.4622e-10)
(1.88991e-06 -0.0262748 -7.63941e-10)
(1.89123e-06 -0.0262748 1.15497e-10)
(1.74705e-07 -0.00931317 -8.339e-10)
(1.74812e-07 -0.00931317 5.6959e-10)
(1.64607e-07 -0.00931436 -7.45721e-10)
(1.64823e-07 -0.00931436 1.54391e-10)
(2.30677e-06 -0.0262708 1.70555e-09)
(2.31021e-06 -0.0262706 2.5291e-09)
(1.89393e-06 -0.0262747 7.40453e-10)
(1.89665e-06 -0.0262744 1.14924e-09)
(1.75357e-07 -0.00931312 1.77454e-09)
(1.76232e-07 -0.00931304 2.5771e-09)
(1.65264e-07 -0.00931431 8.49404e-10)
(1.65564e-07 -0.00931423 1.38022e-09)
(2.31406e-06 -0.0262703 3.45483e-09)
(2.31858e-06 -0.0262701 0.935795)
(1.89885e-06 -0.0262741 2.9653e-09)
(1.90423e-06 -0.026274 0.935982)
(1.78887e-07 -0.00931296 2.80231e-09)
(1.86105e-07 -0.0093129 0.923377)
(1.665e-07 -0.00931414 2.59598e-09)
(1.72691e-07 -0.00931407 0.923559)
(4.01253e-06 -0.0262586 -0.935052)
(4.00555e-06 -0.0262587 -4.85274e-09)
(3.06591e-06 -0.0262651 -0.935252)
(3.0598e-06 -0.0262652 -4.19119e-09)
(3.67689e-07 -0.00930924 -0.922652)
(3.55063e-07 -0.00930929 -3.54838e-09)
(2.61621e-07 -0.00931132 -0.922847)
(2.51581e-07 -0.00931138 -3.25528e-09)
(4.00082e-06 -0.026259 -4.10964e-09)
(3.99745e-06 -0.0262593 -2.94138e-09)
(3.05554e-06 -0.0262655 -3.44506e-09)
(3.0526e-06 -0.0262658 -2.44686e-09)
(3.50544e-07 -0.00930938 -4.08485e-09)
(3.49159e-07 -0.00930946 -2.95284e-09)
(2.47876e-07 -0.00931146 -3.46113e-09)
(2.46786e-07 -0.00931154 -2.48577e-09)
(3.99546e-06 -0.0262594 -8.9462e-10)
(3.99559e-06 -0.0262594 1.51635e-09)
(3.05099e-06 -0.0262659 -8.5214e-10)
(3.05136e-06 -0.0262659 1.04033e-09)
(3.48523e-07 -0.00930951 -8.76919e-10)
(3.48524e-07 -0.00930951 1.52837e-09)
(2.46288e-07 -0.0093116 -8.38621e-10)
(2.46324e-07 -0.0093116 1.06562e-09)
(3.99782e-06 -0.0262593 3.4956e-09)
(4.00141e-06 -0.026259 4.51737e-09)
(3.05369e-06 -0.0262658 2.6201e-09)
(3.05723e-06 -0.0262655 3.59121e-09)
(3.49161e-07 -0.00930946 3.55804e-09)
(3.50541e-07 -0.00930938 4.58297e-09)
(2.46891e-07 -0.00931155 2.69868e-09)
(2.48043e-07 -0.00931146 3.64907e-09)
(4.00629e-06 -0.0262587 4.9548e-09)
(4.01336e-06 -0.0262586 0.935052)
(3.06193e-06 -0.0262652 4.29457e-09)
(3.06827e-06 -0.0262651 0.935252)
(3.55091e-07 -0.00930929 3.83699e-09)
(3.67824e-07 -0.00930924 0.922652)
(2.51805e-07 -0.00931138 3.39669e-09)
(2.61876e-07 -0.00931132 0.922847)
(6.18372e-06 -0.0262404 -0.934279)
(6.17471e-06 -0.0262406 -6.04384e-09)
(5.06533e-06 -0.0262504 -0.934478)
(5.05746e-06 -0.0262505 -5.26454e-09)
(6.06465e-07 -0.00930326 -0.921899)
(5.8773e-07 -0.00930331 -4.15605e-09)
(4.85031e-07 -0.00930656 -0.922093)
(4.69518e-07 -0.00930661 -3.62538e-09)
(6.16894e-06 -0.0262408 -5.38458e-09)
(6.16476e-06 -0.0262411 -4.0349e-09)
(5.05223e-06 -0.0262508 -4.6455e-09)
(5.04843e-06 -0.0262511 -3.4032e-09)
(5.81231e-07 -0.0093034 -5.37372e-09)
(5.7928e-07 -0.00930348 -4.05508e-09)
(4.64043e-07 -0.0093067 -4.62505e-09)
(4.62361e-07 -0.00930678 -3.42863e-09)
(6.1622e-06 -0.0262413 -1.28306e-09)
(6.1622e-06 -0.0262413 2.04171e-09)
(5.04613e-06 -0.0262512 -9.98177e-10)
(5.04615e-06 -0.0262512 1.88384e-09)
(5.78391e-07 -0.00930353 -1.26893e-09)
(5.78384e-07 -0.00930353 2.03005e-09)
(4.61591e-07 -0.00930684 -9.98719e-10)
(4.61581e-07 -0.00930684 1.86514e-09)
(6.16474e-06 -0.0262411 4.72035e-09)
(6.16892e-06 -0.0262408 5.90195e-09)
(5.04849e-06 -0.0262511 4.23347e-09)
(5.05232e-06 -0.0262508 5.33562e-09)
(5.79257e-07 -0.00930348 4.76558e-09)
(5.81182e-07 -0.0093034 5.95619e-09)
(4.6233e-07 -0.00930678 4.26837e-09)
(4.63983e-07 -0.0093067 5.39767e-09)
(6.17472e-06 -0.0262406 6.19355e-09)
(6.18376e-06 -0.0262404 0.934279)
(5.0576e-06 -0.0262505 5.657e-09)
(5.06555e-06 -0.0262504 0.934478)
(5.87696e-07 -0.00930332 4.47671e-09)
(6.06585e-07 -0.00930326 0.921899)
(4.69463e-07 -0.00930662 4.29887e-09)
(4.85173e-07 -0.00930656 0.922093)
(8.6141e-06 -0.0262148 -0.933478)
(8.60249e-06 -0.026215 -7.52578e-09)
(7.36373e-06 -0.0262286 -0.933692)
(7.35354e-06 -0.0262287 -6.54369e-09)
(8.63563e-07 -0.0092947 -0.921119)
(8.37832e-07 -0.00929475 -5.00201e-09)
(7.31913e-07 -0.00929931 -0.921327)
(7.09798e-07 -0.00929937 -4.37899e-09)
(8.59556e-06 -0.0262153 -6.81721e-09)
(8.59063e-06 -0.0262155 -5.24752e-09)
(7.34721e-06 -0.026229 -6.01007e-09)
(7.34266e-06 -0.0262293 -4.59499e-09)
(8.29068e-07 -0.00929484 -6.82505e-09)
(8.26609e-07 -0.00929492 -5.28568e-09)
(7.02196e-07 -0.00929945 -6.02182e-09)
(6.9999e-07 -0.00929953 -4.63946e-09)
(8.58758e-06 -0.0262157 -1.8369e-09)
(8.58758e-06 -0.0262157 2.36258e-09)
(7.33986e-06 -0.0262295 -1.54152e-09)
(7.33986e-06 -0.0262295 2.20857e-09)
(8.25501e-07 -0.00929497 -1.8103e-09)
(8.25504e-07 -0.00929497 2.3564e-09)
(6.98991e-07 -0.00929958 -1.5316e-09)
(6.9899e-07 -0.00929959 2.19229e-09)
(8.59065e-06 -0.0262155 5.71506e-09)
(8.5956e-06 -0.0262153 7.16626e-09)
(7.34266e-06 -0.0262293 5.22182e-09)
(7.34722e-06 -0.026229 6.53186e-09)
(8.26612e-07 -0.00929492 5.79206e-09)
(8.29059e-07 -0.00929484 7.23807e-09)
(6.99983e-07 -0.00929953 5.27685e-09)
(7.02171e-07 -0.00929945 6.60121e-09)
(8.60257e-06 -0.026215 7.60553e-09)
(8.61422e-06 -0.0262148 0.933478)
(7.35358e-06 -0.0262287 6.88847e-09)
(7.36384e-06 -0.0262286 0.933692)
(8.37848e-07 -0.00929475 5.22093e-09)
(8.63723e-07 -0.0092947 0.921119)
(7.09776e-07 -0.00929937 4.89205e-09)
(7.32074e-07 -0.00929931 0.921327)
(1.13922e-05 -0.0261811 -0.932655)
(1.13774e-05 -0.0261812 -9.21668e-09)
(9.95206e-06 -0.026199 -0.932868)
(9.93899e-06 -0.0261992 -8.27406e-09)
(1.15613e-06 -0.00928334 -0.920316)
(1.12232e-06 -0.00928339 -5.98293e-09)
(1.00419e-06 -0.00928939 -0.920524)
(9.74608e-07 -0.00928944 -5.35322e-09)
(1.13692e-05 -0.0261815 -8.35027e-09)
(1.13635e-05 -0.0261818 -6.5333e-09)
(9.93143e-06 -0.0261994 -7.53038e-09)
(9.92612e-06 -0.0261997 -5.84545e-09)
(1.11097e-06 -0.00928347 -8.41045e-09)
(1.10801e-06 -0.00928355 -6.624e-09)
(9.64581e-07 -0.00928952 -7.55199e-09)
(9.61874e-07 -0.0092896 -5.90839e-09)
(1.136e-05 -0.0261819 -2.48536e-09)
(1.13599e-05 -0.0261819 2.57054e-09)
(9.9228e-06 -0.0261999 -2.11216e-09)
(9.9228e-06 -0.0261999 2.52566e-09)
(1.1067e-06 -0.0092836 -2.46437e-09)
(1.10669e-06 -0.0092836 2.56128e-09)
(9.6066e-07 -0.00928965 -2.09165e-09)
(9.6066e-07 -0.00928965 2.51269e-09)
(1.13635e-05 -0.0261818 6.60086e-09)
(1.13691e-05 -0.0261815 8.4017e-09)
(9.92611e-06 -0.0261997 6.22945e-09)
(9.93143e-06 -0.0261995 7.86179e-09)
(1.108e-06 -0.00928355 6.71424e-09)
(1.11094e-06 -0.00928347 8.49462e-09)
(9.6187e-07 -0.0092896 6.31849e-09)
(9.64561e-07 -0.00928952 7.9487e-09)
(1.13774e-05 -0.0261812 9.18272e-09)
(1.13922e-05 -0.0261811 0.932655)
(9.939e-06 -0.0261992 8.45659e-09)
(9.95214e-06 -0.026199 0.932868)
(1.1223e-06 -0.00928339 6.03731e-09)
(1.15617e-06 -0.00928334 0.920316)
(9.7459e-07 -0.00928944 5.7424e-09)
(1.00434e-06 -0.00928939 0.920524)
(1.46435e-05 -0.0261382 -0.931793)
(1.4625e-05 -0.0261383 -1.07754e-08)
(1.29519e-05 -0.0261608 -0.932011)
(1.29353e-05 -0.026161 -9.99742e-09)
(1.50161e-06 -0.00926882 -0.919476)
(1.45834e-06 -0.00926887 -6.88445e-09)
(1.32138e-06 -0.00927649 -0.919689)
(1.28301e-06 -0.00927655 -6.49136e-09)
(1.46154e-05 -0.0261386 -9.7452e-09)
(1.4609e-05 -0.0261389 -7.71568e-09)
(1.29264e-05 -0.0261613 -9.10694e-09)
(1.29204e-05 -0.0261615 -7.19806e-09)
(1.44409e-06 -0.00926895 -9.93467e-09)
(1.44062e-06 -0.00926903 -7.9048e-09)
(1.27025e-06 -0.00927663 -9.22949e-09)
(1.26705e-06 -0.00927671 -7.32591e-09)
(1.4605e-05 -0.026139 -3.09288e-09)
(1.4605e-05 -0.026139 2.75275e-09)
(1.29166e-05 -0.0261617 -2.87011e-09)
(1.29166e-05 -0.0261617 2.57803e-09)
(1.43911e-06 -0.00926908 -3.10205e-09)
(1.43911e-06 -0.00926908 2.72311e-09)
(1.26564e-06 -0.00927676 -2.8463e-09)
(1.26563e-06 -0.00927676 2.57977e-09)
(1.4609e-05 -0.0261389 7.40766e-09)
(1.46154e-05 -0.0261386 9.53933e-09)
(1.29203e-05 -0.0261615 6.92149e-09)
(1.29263e-05 -0.0261613 8.89709e-09)
(1.44061e-06 -0.00926903 7.5458e-09)
(1.44407e-06 -0.00926895 9.6389e-09)
(1.26703e-06 -0.00927671 7.06894e-09)
(1.27023e-06 -0.00927663 9.01016e-09)
(1.4625e-05 -0.0261383 1.07769e-08)
(1.46435e-05 -0.0261382 0.931793)
(1.29352e-05 -0.026161 9.91303e-09)
(1.29518e-05 -0.0261608 0.932011)
(1.45834e-06 -0.00926887 6.71395e-09)
(1.50154e-06 -0.00926882 0.919476)
(1.28299e-06 -0.00927655 6.33984e-09)
(1.32133e-06 -0.0092765 0.919689)
(1.84891e-05 -0.0260848 -0.93091)
(1.84663e-05 -0.026085 -1.28258e-08)
(1.64852e-05 -0.0261129 -0.931145)
(1.64647e-05 -0.026113 -1.18116e-08)
(1.9143e-06 -0.00925067 -0.918616)
(1.86015e-06 -0.00925072 -7.68149e-09)
(1.69865e-06 -0.00926023 -0.918845)
(1.65017e-06 -0.00926028 -7.35189e-09)
(1.84552e-05 -0.0260852 -1.11057e-08)
(1.84482e-05 -0.0260855 -8.63822e-09)
(1.64543e-05 -0.0261133 -1.04556e-08)
(1.64476e-05 -0.0261136 -8.21186e-09)
(1.8426e-06 -0.0092508 -1.12706e-08)
(1.83855e-06 -0.00925088 -8.84569e-09)
(1.63433e-06 -0.00926036 -1.06442e-08)
(1.63057e-06 -0.00926043 -8.41387e-09)
(1.84437e-05 -0.0260856 -3.25849e-09)
(1.84437e-05 -0.0260856 3.49367e-09)
(1.64433e-05 -0.0261137 -3.21817e-09)
(1.64434e-05 -0.0261137 3.06757e-09)
(1.83685e-06 -0.00925092 -3.27349e-09)
(1.83685e-06 -0.00925092 3.44161e-09)
(1.62897e-06 -0.00926048 -3.23081e-09)
(1.62897e-06 -0.00926048 3.03055e-09)
(1.84482e-05 -0.0260855 8.83685e-09)
(1.84553e-05 -0.0260852 1.12591e-08)
(1.64476e-05 -0.0261136 8.05561e-09)
(1.64544e-05 -0.0261133 1.03355e-08)
(1.83856e-06 -0.00925088 8.99142e-09)
(1.84261e-06 -0.0092508 1.13898e-08)
(1.63057e-06 -0.00926044 8.20768e-09)
(1.63433e-06 -0.00926036 1.04483e-08)
(1.84665e-05 -0.026085 1.28551e-08)
(1.84893e-05 -0.0260848 0.93091)
(1.64647e-05 -0.0261131 1.17545e-08)
(1.64853e-05 -0.0261129 0.931145)
(1.86019e-06 -0.00925072 7.77274e-09)
(1.9144e-06 -0.00925067 0.918616)
(1.65019e-06 -0.00926028 7.19405e-09)
(1.69866e-06 -0.00926023 0.918845)
(2.3051e-05 -0.0260195 -0.929981)
(2.30231e-05 -0.0260196 -1.48837e-08)
(2.06735e-05 -0.0260537 -0.930223)
(2.06483e-05 -0.0260539 -1.37596e-08)
(2.40892e-06 -0.00922833 -0.91771)
(2.34182e-06 -0.00922838 -8.59121e-09)
(2.15042e-06 -0.00924006 -0.917946)
(2.0901e-06 -0.00924011 -8.05503e-09)
(2.30103e-05 -0.0260199 -1.2625e-08)
(2.30025e-05 -0.0260201 -9.79625e-09)
(2.06364e-05 -0.0260541 -1.18266e-08)
(2.0629e-05 -0.0260544 -9.18976e-09)
(2.32048e-06 -0.00922846 -1.28357e-08)
(2.31579e-06 -0.00922853 -1.00094e-08)
(2.07072e-06 -0.00924019 -1.20173e-08)
(2.06635e-06 -0.00924026 -9.40351e-09)
(2.29976e-05 -0.0260203 -3.66458e-09)
(2.29976e-05 -0.0260203 4.04463e-09)
(2.06243e-05 -0.0260546 -3.43804e-09)
(2.06243e-05 -0.0260546 3.78664e-09)
(2.3139e-06 -0.00922858 -3.6192e-09)
(2.31391e-06 -0.00922858 4.05951e-09)
(2.06456e-06 -0.00924031 -3.42841e-09)
(2.06457e-06 -0.00924031 3.76325e-09)
(2.30026e-05 -0.0260201 1.01407e-08)
(2.30105e-05 -0.0260199 1.29028e-08)
(2.06291e-05 -0.0260544 9.50321e-09)
(2.06365e-05 -0.0260541 1.20991e-08)
(2.31582e-06 -0.00922853 1.04111e-08)
(2.32053e-06 -0.00922846 1.31623e-08)
(2.06637e-06 -0.00924026 9.71156e-09)
(2.07074e-06 -0.00924019 1.22917e-08)
(2.30233e-05 -0.0260196 1.49908e-08)
(2.30512e-05 -0.0260195 0.929981)
(2.06485e-05 -0.0260539 1.39318e-08)
(2.06737e-05 -0.0260537 0.930223)
(2.3419e-06 -0.00922838 8.75777e-09)
(2.40905e-06 -0.00922834 0.91771)
(2.09015e-06 -0.00924011 8.31814e-09)
(2.15056e-06 -0.00924006 0.917946)
(2.84601e-05 -0.0259402 -0.92903)
(2.84264e-05 -0.0259404 -1.71157e-08)
(2.56421e-05 -0.0259817 -0.929291)
(2.56115e-05 -0.0259818 -1.59007e-08)
(3.00073e-06 -0.00920114 -0.916784)
(2.91845e-06 -0.00920118 -9.35787e-09)
(2.69165e-06 -0.00921538 -0.917038)
(2.61729e-06 -0.00921543 -8.8682e-09)
(2.84118e-05 -0.0259406 -1.41185e-08)
(2.84033e-05 -0.0259409 -1.09032e-08)
(2.55979e-05 -0.0259821 -1.33761e-08)
(2.55898e-05 -0.0259823 -1.03596e-08)
(2.89275e-06 -0.00920126 -1.43754e-08)
(2.88735e-06 -0.00920133 -1.11496e-08)
(2.59385e-06 -0.00921551 -1.35797e-08)
(2.58882e-06 -0.00921558 -1.05595e-08)
(2.83979e-05 -0.025941 -4.01363e-09)
(2.8398e-05 -0.025941 4.63835e-09)
(2.55846e-05 -0.0259825 -3.82798e-09)
(2.55846e-05 -0.0259825 4.38157e-09)
(2.88527e-06 -0.00920137 -3.95595e-09)
(2.88529e-06 -0.00920137 4.6573e-09)
(2.58684e-06 -0.00921563 -3.75442e-09)
(2.58686e-06 -0.00921563 4.40554e-09)
(2.84034e-05 -0.0259409 1.1462e-08)
(2.84119e-05 -0.0259406 1.45539e-08)
(2.55899e-05 -0.0259823 1.08649e-08)
(2.5598e-05 -0.0259821 1.37984e-08)
(2.8874e-06 -0.00920133 1.17862e-08)
(2.89281e-06 -0.00920126 1.48885e-08)
(2.58886e-06 -0.00921558 1.1153e-08)
(2.59391e-06 -0.00921551 1.40867e-08)
(2.84266e-05 -0.0259404 1.7295e-08)
(2.84603e-05 -0.0259402 0.92903)
(2.56117e-05 -0.0259818 1.61864e-08)
(2.56424e-05 -0.0259817 0.929291)
(2.91855e-06 -0.00920119 9.64744e-09)
(3.0009e-06 -0.00920114 0.916784)
(2.61738e-06 -0.00921544 9.29916e-09)
(2.69183e-06 -0.00921539 0.917038)
(3.48523e-05 -0.0258451 -0.928043)
(3.48119e-05 -0.0258452 -1.9183e-08)
(3.15253e-05 -0.0258948 -0.9283)
(3.14885e-05 -0.0258949 -1.80624e-08)
(3.70582e-06 -0.00916832 -0.915822)
(3.60564e-06 -0.00916837 -9.88223e-09)
(3.33798e-06 -0.00918548 -0.916072)
(3.24713e-06 -0.00918553 -9.53781e-09)
(3.47952e-05 -0.0258454 -1.54365e-08)
(3.4786e-05 -0.0258457 -1.19373e-08)
(3.14729e-05 -0.0258951 -1.47096e-08)
(3.14641e-05 -0.0258954 -1.13514e-08)
(3.57491e-06 -0.00916844 -1.58473e-08)
(3.56872e-06 -0.00916851 -1.23297e-08)
(3.21901e-06 -0.0091856 -1.50395e-08)
(3.21322e-06 -0.00918567 -1.16818e-08)
(3.47802e-05 -0.0258458 -4.45836e-09)
(3.47802e-05 -0.0258458 4.95546e-09)
(3.14584e-05 -0.0258955 -4.17774e-09)
(3.14585e-05 -0.0258955 4.84746e-09)
(3.56642e-06 -0.00916855 -4.47491e-09)
(3.56643e-06 -0.00916855 4.9218e-09)
(3.21104e-06 -0.00918571 -4.17072e-09)
(3.21105e-06 -0.00918571 4.82625e-09)
(3.47861e-05 -0.0258457 1.236e-08)
(3.47953e-05 -0.0258454 1.5742e-08)
(3.14641e-05 -0.0258954 1.1959e-08)
(3.1473e-05 -0.0258951 1.51854e-08)
(3.56873e-06 -0.00916851 1.27255e-08)
(3.57493e-06 -0.00916844 1.6163e-08)
(3.21325e-06 -0.00918567 1.22896e-08)
(3.21904e-06 -0.0091856 1.55611e-08)
(3.4812e-05 -0.0258452 1.94062e-08)
(3.48524e-05 -0.0258451 0.928043)
(3.14886e-05 -0.0258949 1.83479e-08)
(3.15255e-05 -0.0258948 0.9283)
(3.6057e-06 -0.00916837 1.01015e-08)
(3.70586e-06 -0.00916832 0.915822)
(3.24721e-06 -0.00918553 9.92297e-09)
(3.33811e-06 -0.00918548 0.916072)
(4.23761e-05 -0.0257316 -0.927021)
(4.23279e-05 -0.0257317 -2.17858e-08)
(3.84645e-05 -0.0257907 -0.9273)
(3.84204e-05 -0.0257909 -2.04343e-08)
(4.54137e-06 -0.00912902 -0.914826)
(4.42031e-06 -0.00912906 -1.06067e-08)
(4.10609e-06 -0.00914953 -0.915099)
(3.99586e-06 -0.00914958 -1.02878e-08)
(4.2309e-05 -0.0257319 -1.71241e-08)
(4.22991e-05 -0.0257321 -1.33094e-08)
(3.84027e-05 -0.0257911 -1.62238e-08)
(3.83931e-05 -0.0257913 -1.25907e-08)
(4.38382e-06 -0.00912913 -1.76801e-08)
(4.37673e-06 -0.00912919 -1.37834e-08)
(3.96234e-06 -0.00914965 -1.67337e-08)
(3.95572e-06 -0.00914971 -1.30558e-08)
(4.22927e-05 -0.0257323 -5.08165e-09)
(4.22928e-05 -0.0257323 5.32089e-09)
(3.8387e-05 -0.0257915 -4.7932e-09)
(3.83871e-05 -0.0257915 5.06254e-09)
(4.37422e-06 -0.00912923 -5.09166e-09)
(4.37424e-06 -0.00912923 5.3021e-09)
(3.95332e-06 -0.00914975 -4.82251e-09)
(3.95333e-06 -0.00914975 5.04272e-09)
(4.22992e-05 -0.0257321 1.351e-08)
(4.23091e-05 -0.0257319 1.7298e-08)
(3.83932e-05 -0.0257913 1.28288e-08)
(3.84028e-05 -0.0257911 1.64118e-08)
(4.37676e-06 -0.00912919 1.39624e-08)
(4.38386e-06 -0.00912913 1.7821e-08)
(3.95573e-06 -0.00914971 1.32635e-08)
(3.96237e-06 -0.00914965 1.69162e-08)
(4.23281e-05 -0.0257317 2.20219e-08)
(4.23762e-05 -0.0257316 0.927021)
(3.84206e-05 -0.0257909 2.05849e-08)
(3.84646e-05 -0.0257908 0.9273)
(4.42041e-06 -0.00912906 1.07686e-08)
(4.54139e-06 -0.00912902 0.914826)
(3.99594e-06 -0.00914958 1.03588e-08)
(4.10609e-06 -0.00914953 0.915099)
(5.11833e-05 -0.0255972 -0.925958)
(5.11261e-05 -0.0255973 -2.4747e-08)
(4.66105e-05 -0.0256671 -0.926235)
(4.65581e-05 -0.0256673 -2.33386e-08)
(5.52542e-06 -0.00908228 -0.91379)
(5.38016e-06 -0.00908232 -1.13735e-08)
(5.01344e-06 -0.00910663 -0.914061)
(4.88074e-06 -0.00910668 -1.11128e-08)
(5.11048e-05 -0.0255975 -1.88913e-08)
(5.10941e-05 -0.0255977 -1.46912e-08)
(4.6538e-05 -0.0256675 -1.80352e-08)
(4.65277e-05 -0.0256677 -1.40023e-08)
(5.3371e-06 -0.00908238 -1.9617e-08)
(5.32899e-06 -0.00908244 -1.5252e-08)
(4.84108e-06 -0.00910674 -1.86635e-08)
(4.8335e-06 -0.00910681 -1.45111e-08)
(5.10873e-05 -0.0255978 -5.62004e-09)
(5.10873e-05 -0.0255978 5.87384e-09)
(4.65211e-05 -0.0256678 -5.338e-09)
(4.65212e-05 -0.0256678 5.61931e-09)
(5.32626e-06 -0.00908248 -5.61359e-09)
(5.32628e-06 -0.00908248 5.88037e-09)
(4.83088e-06 -0.00910684 -5.33986e-09)
(4.8309e-06 -0.00910685 5.60041e-09)
(5.10942e-05 -0.0255977 1.49149e-08)
(5.1105e-05 -0.0255975 1.91056e-08)
(4.65278e-05 -0.0256677 1.42324e-08)
(4.65381e-05 -0.0256675 1.8204e-08)
(5.32903e-06 -0.00908244 1.54698e-08)
(5.33716e-06 -0.00908238 1.97612e-08)
(4.83354e-06 -0.00910681 1.4712e-08)
(4.84113e-06 -0.00910674 1.87591e-08)
(5.11264e-05 -0.0255973 2.50026e-08)
(5.11835e-05 -0.0255972 0.925958)
(4.65583e-05 -0.0256673 2.34441e-08)
(4.66107e-05 -0.0256671 0.926235)
(5.38029e-06 -0.00908232 1.1497e-08)
(5.52548e-06 -0.00908228 0.91379)
(4.88086e-06 -0.00910668 1.10568e-08)
(5.01347e-06 -0.00910664 0.914061)
(6.14362e-05 -0.025439 -0.924877)
(6.13688e-05 -0.0254391 -2.78465e-08)
(5.61201e-05 -0.0255212 -0.925149)
(5.6058e-05 -0.0255213 -2.63333e-08)
(6.67742e-06 -0.00902704 -0.912736)
(6.50418e-06 -0.00902708 -1.19063e-08)
(6.07896e-06 -0.00905579 -0.913002)
(5.92022e-06 -0.00905583 -1.17229e-08)
(6.13446e-05 -0.0254393 -2.05595e-08)
(6.13331e-05 -0.0254395 -1.60079e-08)
(5.60353e-05 -0.0255215 -1.97466e-08)
(5.60242e-05 -0.0255217 -1.53635e-08)
(6.45366e-06 -0.00902714 -2.1474e-08)
(6.4444e-06 -0.0090272 -1.66976e-08)
(5.87355e-06 -0.00905589 -2.05571e-08)
(5.86489e-06 -0.00905595 -1.59788e-08)
(6.13259e-05 -0.0254396 -6.18663e-09)
(6.13259e-05 -0.0254396 6.27593e-09)
(5.60172e-05 -0.0255219 -5.91828e-09)
(5.60172e-05 -0.0255219 6.05424e-09)
(6.4414e-06 -0.00902723 -6.20174e-09)
(6.44142e-06 -0.00902723 6.30538e-09)
(5.86203e-06 -0.00905598 -5.91396e-09)
(5.86204e-06 -0.00905598 6.07971e-09)
(6.13333e-05 -0.0254395 1.60677e-08)
(6.13449e-05 -0.0254393 2.06159e-08)
(5.60243e-05 -0.0255217 1.54628e-08)
(5.60355e-05 -0.0255215 1.98341e-08)
(6.44442e-06 -0.0090272 1.67892e-08)
(6.4537e-06 -0.00902714 2.1556e-08)
(5.86492e-06 -0.00905595 1.61097e-08)
(5.8736e-06 -0.00905589 2.06329e-08)
(6.13692e-05 -0.0254391 2.79522e-08)
(6.14366e-05 -0.025439 0.924877)
(5.60583e-05 -0.0255213 2.64092e-08)
(5.61204e-05 -0.0255212 0.925149)
(6.50433e-06 -0.00902709 1.1999e-08)
(6.67751e-06 -0.00902704 0.912736)
(5.92036e-06 -0.00905583 1.17212e-08)
(6.07904e-06 -0.00905579 0.913002)
(7.32957e-05 -0.0252539 -0.923723)
(7.32166e-05 -0.0252539 -3.11214e-08)
(6.71574e-05 -0.0253499 -0.924022)
(6.70844e-05 -0.02535 -2.94674e-08)
(8.01603e-06 -0.00896218 -0.911612)
(7.81075e-06 -0.00896222 -1.22615e-08)
(7.32195e-06 -0.00899588 -0.911904)
(7.13324e-06 -0.00899592 -1.21047e-08)
(7.31894e-05 -0.0252541 -2.2236e-08)
(7.3177e-05 -0.0252543 -1.73129e-08)
(6.70587e-05 -0.0253502 -2.13727e-08)
(6.70468e-05 -0.0253504 -1.66486e-08)
(7.75177e-06 -0.00896227 -2.33716e-08)
(7.74121e-06 -0.00896232 -1.81193e-08)
(7.07861e-06 -0.00899597 -2.23923e-08)
(7.06872e-06 -0.00899603 -1.7399e-08)
(7.31693e-05 -0.0252544 -6.60373e-09)
(7.31693e-05 -0.0252544 7.00512e-09)
(6.70393e-05 -0.0253505 -6.41999e-09)
(6.70393e-05 -0.0253505 6.59075e-09)
(7.73795e-06 -0.00896235 -6.62038e-09)
(7.73798e-06 -0.00896235 7.04487e-09)
(7.0656e-06 -0.00899606 -6.42483e-09)
(7.06562e-06 -0.00899606 6.6496e-09)
(7.31773e-05 -0.0252543 1.76672e-08)
(7.31897e-05 -0.0252541 2.25252e-08)
(6.7047e-05 -0.0253504 1.68149e-08)
(6.7059e-05 -0.0253502 2.15254e-08)
(7.74126e-06 -0.00896232 1.84931e-08)
(7.75185e-06 -0.00896227 2.3696e-08)
(7.06876e-06 -0.00899603 1.7618e-08)
(7.07867e-06 -0.00899598 2.26178e-08)
(7.32171e-05 -0.025254 3.13769e-08)
(7.32962e-05 -0.0252539 0.923723)
(6.70848e-05 -0.02535 2.9589e-08)
(6.71578e-05 -0.0253499 0.924022)
(7.81093e-06 -0.00896222 1.25022e-08)
(8.01619e-06 -0.00896218 0.911612)
(7.13339e-06 -0.00899592 1.22637e-08)
(7.32206e-06 -0.00899588 0.911904)
(8.69192e-05 -0.0250386 -0.922546)
(8.68269e-05 -0.0250387 -3.47964e-08)
(7.98788e-05 -0.0251502 -0.922852)
(7.97934e-05 -0.0251503 -3.28957e-08)
(9.56001e-06 -0.00888647 -0.910465)
(9.31829e-06 -0.00888651 -1.25625e-08)
(8.76077e-06 -0.00892575 -0.910763)
(8.53785e-06 -0.00892579 -1.24052e-08)
(8.67963e-05 -0.0250388 -2.40157e-08)
(8.67831e-05 -0.025039 -1.8649e-08)
(7.97645e-05 -0.0251505 -2.31121e-08)
(7.97518e-05 -0.0251506 -1.79651e-08)
(9.2498e-06 -0.00888656 -2.53776e-08)
(9.23778e-06 -0.0088866 -1.95784e-08)
(8.47426e-06 -0.00892584 -2.43378e-08)
(8.46299e-06 -0.00892589 -1.88151e-08)
(8.67748e-05 -0.0250391 -7.00014e-09)
(8.67749e-05 -0.0250391 7.80536e-09)
(7.97437e-05 -0.0251508 -6.77981e-09)
(7.97438e-05 -0.0251508 7.44471e-09)
(9.23424e-06 -0.00888663 -7.01908e-09)
(9.23428e-06 -0.00888663 7.85008e-09)
(8.4596e-06 -0.00892592 -6.78859e-09)
(8.45964e-06 -0.00892592 7.47603e-09)
(8.67834e-05 -0.025039 1.93572e-08)
(8.67968e-05 -0.0250388 2.45468e-08)
(7.9752e-05 -0.0251506 1.85684e-08)
(7.97649e-05 -0.0251505 2.35739e-08)
(9.23787e-06 -0.0088866 2.03035e-08)
(9.24993e-06 -0.00888656 2.59369e-08)
(8.46307e-06 -0.00892589 1.9416e-08)
(8.47438e-06 -0.00892584 2.48055e-08)
(8.68275e-05 -0.0250387 3.51256e-08)
(8.69199e-05 -0.0250386 0.922546)
(7.97939e-05 -0.0251503 3.32139e-08)
(7.98794e-05 -0.0251502 0.922852)
(9.31854e-06 -0.00888651 1.28977e-08)
(9.56036e-06 -0.00888647 0.910465)
(8.53808e-06 -0.00892579 1.26756e-08)
(8.76101e-06 -0.00892575 0.910763)
(0.00010246 -0.0247896 -0.921329)
(0.000102353 -0.0247897 -3.84868e-08)
(9.44428e-05 -0.0249185 -0.921645)
(9.43434e-05 -0.0249186 -3.66069e-08)
(1.13275e-05 -0.00879863 -0.909279)
(1.10446e-05 -0.00879867 -1.24926e-08)
(1.04143e-05 -0.00884414 -0.909587)
(1.01526e-05 -0.00884418 -1.25064e-08)
(0.000102319 -0.0247899 -2.57172e-08)
(0.000102304 -0.0247901 -2.00133e-08)
(9.4311e-05 -0.0249188 -2.47951e-08)
(9.42973e-05 -0.0249189 -1.9241e-08)
(1.09655e-05 -0.00879871 -2.73909e-08)
(1.09518e-05 -0.00879875 -2.11306e-08)
(1.00789e-05 -0.00884422 -2.63088e-08)
(1.00661e-05 -0.00884427 -2.02785e-08)
(0.000102296 -0.0247902 -7.51666e-09)
(0.000102296 -0.0247902 8.38605e-09)
(9.42887e-05 -0.024919 -7.17032e-09)
(9.42888e-05 -0.024919 8.16963e-09)
(1.0948e-05 -0.00879878 -7.59167e-09)
(1.0948e-05 -0.00879878 8.40449e-09)
(1.00624e-05 -0.00884429 -7.2368e-09)
(1.00625e-05 -0.00884429 8.18733e-09)
(0.000102305 -0.0247901 2.07275e-08)
(0.000102319 -0.0247899 2.61977e-08)
(9.42976e-05 -0.0249189 2.01019e-08)
(9.43114e-05 -0.0249188 2.54346e-08)
(1.09519e-05 -0.00879875 2.18131e-08)
(1.09656e-05 -0.00879871 2.78642e-08)
(1.00662e-05 -0.00884427 2.1122e-08)
(1.00791e-05 -0.00884422 2.69905e-08)
(0.000102354 -0.0247897 3.87971e-08)
(0.000102461 -0.0247897 0.921329)
(9.4344e-05 -0.0249186 3.69778e-08)
(9.44436e-05 -0.0249185 0.921645)
(1.10449e-05 -0.00879867 1.28239e-08)
(1.1328e-05 -0.00879863 0.909279)
(1.01529e-05 -0.00884418 1.2994e-08)
(1.04148e-05 -0.00884414 0.909587)
(0.000120056 -0.0245034 -0.920067)
(0.000119932 -0.0245035 -4.21633e-08)
(0.000110995 -0.0246514 -0.920396)
(0.00011088 -0.0246515 -4.0421e-08)
(1.33344e-05 -0.00869731 -0.908049)
(1.30053e-05 -0.00869735 -1.23683e-08)
(1.22997e-05 -0.00874973 -0.90837)
(1.19943e-05 -0.00874977 -1.26069e-08)
(0.000119894 -0.0245037 -2.76749e-08)
(0.000119879 -0.0245038 -2.18618e-08)
(0.000110844 -0.0246516 -2.66828e-08)
(0.000110829 -0.0246518 -2.08954e-08)
(1.29143e-05 -0.00869739 -2.97955e-08)
(1.28988e-05 -0.00869743 -2.31559e-08)
(1.19094e-05 -0.00874981 -2.85539e-08)
(1.18948e-05 -0.00874985 -2.20967e-08)
(0.000119869 -0.0245039 -8.54842e-09)
(0.000119869 -0.0245039 8.54314e-09)
(0.00011082 -0.0246519 -7.98685e-09)
(0.00011082 -0.0246519 8.4928e-09)
(1.28946e-05 -0.00869745 -8.61316e-09)
(1.28946e-05 -0.00869745 8.61249e-09)
(1.18908e-05 -0.00874987 -8.07356e-09)
(1.18908e-05 -0.00874987 8.50725e-09)
(0.000119879 -0.0245038 2.18352e-08)
(0.000119894 -0.0245037 2.76909e-08)
(0.000110829 -0.0246518 2.12764e-08)
(0.000110844 -0.0246516 2.68951e-08)
(1.28989e-05 -0.00869743 2.31095e-08)
(1.29144e-05 -0.00869739 2.9681e-08)
(1.18949e-05 -0.00874985 2.24259e-08)
(1.19095e-05 -0.00874981 2.87001e-08)
(0.000119933 -0.0245035 4.26679e-08)
(0.000120057 -0.0245035 0.920067)
(0.000110881 -0.0246515 4.05658e-08)
(0.000110996 -0.0246514 0.920396)
(1.30055e-05 -0.00869736 1.24551e-08)
(1.3335e-05 -0.00869732 0.908049)
(1.19945e-05 -0.00874977 1.24875e-08)
(1.23002e-05 -0.00874973 0.90837)
(0.000139817 -0.0241764 -0.918752)
(0.000139675 -0.0241765 -4.66669e-08)
(0.000129662 -0.0243452 -0.919084)
(0.000129529 -0.0243453 -4.46817e-08)
(1.5593e-05 -0.0085812 -0.906767)
(1.52125e-05 -0.00858124 -1.22127e-08)
(1.44309e-05 -0.00864118 -0.907091)
(1.40768e-05 -0.00864122 -1.27071e-08)
(0.000139632 -0.0241766 -2.95726e-08)
(0.000139616 -0.0241767 -2.34442e-08)
(0.000129489 -0.0243454 -2.86839e-08)
(0.000129473 -0.0243456 -2.27027e-08)
(1.51084e-05 -0.00858127 -3.21451e-08)
(1.50909e-05 -0.0085813 -2.50528e-08)
(1.39795e-05 -0.00864126 -3.10338e-08)
(1.3963e-05 -0.00864129 -2.41573e-08)
(0.000139605 -0.0241768 -9.32001e-09)
(0.000139606 -0.0241768 8.9152e-09)
(0.000129463 -0.0243457 -9.01592e-09)
(0.000129463 -0.0243457 8.63486e-09)
(1.50863e-05 -0.00858132 -9.48167e-09)
(1.50863e-05 -0.00858132 8.99196e-09)
(1.39586e-05 -0.00864131 -9.11408e-09)
(1.39586e-05 -0.00864131 8.72248e-09)
(0.000139616 -0.0241767 2.3127e-08)
(0.000139632 -0.0241766 2.94478e-08)
(0.000129473 -0.0243456 2.23884e-08)
(0.000129489 -0.0243454 2.84438e-08)
(1.5091e-05 -0.0085813 2.46456e-08)
(1.51085e-05 -0.00858128 3.18435e-08)
(1.3963e-05 -0.00864129 2.37706e-08)
(1.39795e-05 -0.00864126 3.05738e-08)
(0.000139675 -0.0241765 4.71586e-08)
(0.000139817 -0.0241764 0.918752)
(0.00012953 -0.0243453 4.46278e-08)
(0.000129662 -0.0243452 0.919084)
(1.52127e-05 -0.00858124 1.23189e-08)
(1.55936e-05 -0.00858121 0.906767)
(1.40771e-05 -0.00864122 1.19943e-08)
(1.44317e-05 -0.00864118 0.907091)
(0.000161831 -0.0238049 -0.917396)
(0.000161669 -0.0238049 -5.22964e-08)
(0.000150541 -0.0239964 -0.917747)
(0.000150389 -0.0239964 -4.9608e-08)
(1.8113e-05 -0.00844893 -0.905446)
(1.76755e-05 -0.00844897 -1.27206e-08)
(1.68192e-05 -0.00851716 -0.905788)
(1.64109e-05 -0.0085172 -1.27795e-08)
(0.000161621 -0.023805 -3.19223e-08)
(0.000161603 -0.0238051 -2.52412e-08)
(0.000150344 -0.0239966 -3.07913e-08)
(0.000150327 -0.0239967 -2.44034e-08)
(1.75571e-05 -0.008449 -3.49032e-08)
(1.75374e-05 -0.00844902 -2.69755e-08)
(1.62998e-05 -0.00851723 -3.35851e-08)
(1.62812e-05 -0.00851725 -2.60694e-08)
(0.000161592 -0.0238052 -9.83423e-09)
(0.000161592 -0.0238052 9.97468e-09)
(0.000150316 -0.0239968 -9.68613e-09)
(0.000150316 -0.0239968 9.29996e-09)
(1.75324e-05 -0.00844904 -9.94336e-09)
(1.75324e-05 -0.00844904 1.01124e-08)
(1.62764e-05 -0.00851727 -9.78234e-09)
(1.62765e-05 -0.00851727 9.46968e-09)
(0.000161603 -0.0238051 2.53226e-08)
(0.000161621 -0.023805 3.20606e-08)
(0.000150327 -0.0239967 2.40553e-08)
(0.000150344 -0.0239966 3.0557e-08)
(1.75374e-05 -0.00844902 2.70694e-08)
(1.75571e-05 -0.008449 3.49042e-08)
(1.62813e-05 -0.00851725 2.57618e-08)