/*--------------------------------*- C++ -*----------------------------------*\
  =========                 |
  \\      /  F ield         | OpenFOAM: The Open Source CFD Toolbox
   \\    /   O peration     | Website:  https://openfoam.org
    \\  /    A nd           | Version:  9
     \\/     M anipulation  |
\*---------------------------------------------------------------------------*/
FoamFile
{
    format      ascii;
    class       surfaceScalarField;
    location    "0.3";
    object      phi;
}
// * * * * * * * * * * * * * * * * * * * * * * * * * * * * * * * * * * * * * //

dimensions      [0 3 -1 0 0 0 0];

internalField   nonuniform List<scalar> 
104044
(
-8.33813e-12
-1.54498e-05
-4.47508e-10
1.54484e-05
1.82884e-09
-1.545e-05
-4.35646e-10
-2.45122e-12
1.54487e-05
1.80612e-09
7.65653e-12
-7.6632e-10
2.15242e-09
-7.78326e-10
-4.03299e-13
2.16561e-09
-6.12282e-12
-5.5389e-06
5.53846e-06
-5.53899e-06
-2.61863e-12
5.53855e-06
6.6348e-12
-3.39695e-13
-2.5281e-12
-1.54505e-05
-4.29193e-10
1.54491e-05
1.79188e-09
-1.54509e-05
-4.25089e-10
-1.72113e-12
1.54496e-05
1.78145e-09
-1.21733e-12
-7.78066e-10
2.16417e-09
-7.75403e-10
-7.15059e-13
2.15778e-09
-2.68964e-12
-5.53912e-06
5.53869e-06
-5.53926e-06
-1.75255e-12
5.53883e-06
-1.20433e-12
-7.21872e-13
6.56841e-14
-1.54512e-05
-4.23299e-10
1.54498e-05
1.77702e-09
-1.54512e-05
-4.24625e-10
1.83841e-12
1.54498e-05
1.78078e-09
1.519e-13
-7.74163e-10
2.15497e-09
-7.76056e-10
1.01563e-12
2.15957e-09
1.21248e-13
-5.53935e-06
5.53892e-06
-5.53935e-06
1.97508e-12
5.53892e-06
1.8649e-13
1.08881e-12
2.60321e-12
-1.54509e-05
-4.28949e-10
1.54496e-05
1.79238e-09
-1.54505e-05
-4.35242e-10
2.49567e-12
1.54491e-05
1.80899e-09
1.47701e-12
-7.80915e-10
2.17117e-09
-7.86703e-10
5.47126e-13
2.18511e-09
2.84943e-12
-5.53927e-06
5.53883e-06
-5.53913e-06
2.68332e-12
5.53869e-06
1.52005e-12
5.24498e-13
8.70081e-12
-1.54501e-05
-4.43328e-10
1.54487e-05
1.82781e-09
-1.54498e-05
-4.56516e-10
1.54484e-05
1.85229e-09
-7.61624e-12
-7.89281e-10
2.19218e-09
-7.78837e-10
2.18189e-09
6.35737e-12
-5.539e-06
5.53855e-06
-5.53891e-06
5.53846e-06
-6.6649e-12
-5.45378e-12
-1.54466e-05
-7.9752e-10
1.5444e-05
3.41591e-09
-1.54469e-05
-7.95914e-10
-6.49258e-12
1.54443e-05
3.40875e-09
-4.85715e-12
-5.05104e-10
2.29493e-09
-5.02666e-10
-3.62253e-12
2.28502e-09
-4.29672e-12
-5.53795e-06
5.53716e-06
-5.53804e-06
-6.88718e-12
5.53725e-06
-4.30069e-12
-4.59734e-12
-6.16378e-12
-1.54473e-05
-7.90791e-10
1.54447e-05
3.39845e-09
-1.54478e-05
-7.8687e-10
-3.79636e-12
1.54452e-05
3.3884e-09
-4.12268e-12
-4.98306e-10
2.27456e-09
-4.94996e-10
-2.71932e-12
2.26507e-09
-6.29381e-12
-5.53819e-06
5.53739e-06
-5.53833e-06
-3.78311e-12
5.53754e-06
-4.35202e-12
-2.72869e-12
8.54788e-14
-1.54481e-05
-7.846e-10
1.54455e-05
3.38284e-09
-1.54481e-05
-7.8496e-10
3.95768e-12
1.54455e-05
3.38411e-09
6.45935e-14
-4.93154e-10
2.26027e-09
-4.93951e-10
2.8351e-12
2.26275e-09
1.0692e-13
-5.53842e-06
5.53763e-06
-5.53842e-06
3.98577e-12
5.53763e-06
1.03543e-13
2.91918e-12
6.30026e-12
-1.54478e-05
-7.87913e-10
1.54452e-05
3.39207e-09
-1.54473e-05
-7.92413e-10
6.59408e-12
1.54447e-05
3.40417e-09
4.191e-12
-4.97311e-10
2.27229e-09
-5.01906e-10
3.57238e-12
2.28586e-09
6.46703e-12
-5.53833e-06
5.53754e-06
-5.53819e-06
7.03433e-12
5.5374e-06
4.49685e-12
4.69542e-12
5.6009e-12
-1.54469e-05
-7.97961e-10
1.54443e-05
3.41598e-09
-1.54466e-05
-7.99876e-10
1.5444e-05
3.42382e-09
5.08328e-12
-5.07234e-10
2.29931e-09
-5.10685e-10
2.31031e-09
4.43692e-12
-5.53804e-06
5.53725e-06
-5.53796e-06
5.53716e-06
4.38849e-12
-7.9087e-12
-1.54404e-05
-1.56894e-09
1.54357e-05
6.29238e-09
-1.54407e-05
-1.56778e-09
-9.29085e-12
1.5436e-05
6.28569e-09
-6.70565e-12
-1.16081e-09
4.75644e-09
-1.15901e-09
-7.90822e-12
4.74952e-09
-5.46474e-12
-5.536e-06
5.53444e-06
-5.53609e-06
-1.00266e-11
5.53453e-06
-4.83521e-12
-8.49176e-12
-9.40445e-12
-1.54411e-05
-1.56173e-09
1.54364e-05
6.27651e-09
-1.54416e-05
-1.55751e-09
-5.7512e-12
1.54369e-05
6.26671e-09
-7.76192e-12
-1.15341e-09
4.73975e-09
-1.14934e-09
-4.72872e-12
4.72988e-09
-9.50184e-12
-5.53624e-06
5.53468e-06
-5.53639e-06
-5.68675e-12
5.53483e-06
-7.87482e-12
-4.69483e-12
1.43928e-13
-1.54419e-05
-1.55491e-09
1.54372e-05
6.2608e-09
-1.54419e-05
-1.55487e-09
6.03887e-12
1.54372e-05
6.26085e-09
1.151e-13
-1.14691e-09
4.72412e-09
-1.14698e-09
4.95319e-12
4.72454e-09
1.4901e-13
-5.53648e-06
5.53492e-06
-5.53648e-06
5.97914e-12
5.53492e-06
1.26013e-13
4.93875e-12
9.69704e-12
-1.54416e-05
-1.55739e-09
1.54369e-05
6.26684e-09
-1.54411e-05
-1.56155e-09
9.64016e-12
1.54364e-05
6.27669e-09
7.97521e-12
-1.14955e-09
4.73111e-09
-1.15373e-09
8.12917e-12
4.74163e-09
9.78174e-12
-5.53639e-06
5.53483e-06
-5.53624e-06
1.02949e-11
5.53468e-06
8.09279e-12
8.65934e-12
7.84623e-12
-1.54407e-05
-1.56751e-09
1.5436e-05
6.28595e-09
-1.54404e-05
-1.56827e-09
1.54357e-05
6.29314e-09
6.75613e-12
-1.1594e-09
4.75187e-09
-1.16085e-09
4.75931e-09
5.52884e-12
-5.53609e-06
5.53453e-06
-5.53601e-06
5.53444e-06
5.02344e-12
-9.72527e-12
-1.54299e-05
-2.3565e-09
1.54229e-05
9.33595e-09
-1.54302e-05
-2.35682e-09
-1.20594e-11
1.54232e-05
9.32822e-09
-8.73203e-12
-1.94361e-09
7.7266e-09
-1.94319e-09
-1.05842e-11
7.71965e-09
-6.28365e-12
-5.53251e-06
5.53015e-06
-5.53259e-06
-1.29557e-11
5.53024e-06
-5.80179e-12
-1.13976e-11
-1.24284e-11
-1.54306e-05
-2.34972e-09
1.54237e-05
9.31938e-09
-1.54311e-05
-2.34502e-09
-7.63548e-12
1.54241e-05
9.30929e-09
-1.0829e-11
-1.93674e-09
7.71085e-09
-1.93235e-09
-6.63455e-12
7.70109e-09
-1.24788e-11
-5.53274e-06
5.53039e-06
-5.5329e-06
-7.51266e-12
5.53054e-06
-1.09004e-11
-6.54136e-12
1.95379e-13
-1.54314e-05
-2.34211e-09
1.54244e-05
9.30314e-09
-1.54314e-05
-2.34209e-09
8.004e-12
1.54244e-05
9.30311e-09
1.77562e-13
-1.92963e-09
7.69515e-09
-1.92959e-09
6.97051e-12
7.6951e-09
1.89164e-13
-5.53299e-06
5.53064e-06
-5.53299e-06
7.87334e-12
5.53064e-06
1.75071e-13
6.87151e-12
1.27062e-11
-1.54311e-05
-2.34498e-09
1.54241e-05
9.30922e-09
-1.54306e-05
-2.34967e-09
1.21554e-11
1.54237e-05
9.3193e-09
1.11222e-11
-1.93223e-09
7.70095e-09
-1.93656e-09
1.08187e-11
7.71062e-09
1.27632e-11
-5.5329e-06
5.53054e-06
-5.53274e-06
1.31035e-11
5.53039e-06
1.11841e-11
1.1598e-11
9.89136e-12
-1.54302e-05
-2.35681e-09
1.54232e-05
9.32811e-09
-1.54299e-05
-2.35674e-09
1.54229e-05
9.33544e-09
8.77921e-12
-1.94297e-09
7.71937e-09
-1.94325e-09
7.72642e-09
6.36108e-12
-5.5326e-06
5.53024e-06
-5.53251e-06
5.53015e-06
5.89475e-12
-1.1894e-11
-1.54149e-05
-3.17354e-09
1.54055e-05
1.25315e-08
-1.54152e-05
-3.17471e-09
-1.45107e-11
1.54058e-05
1.25231e-08
-1.06735e-11
-2.73011e-09
1.0795e-08
-2.73101e-09
-1.31471e-11
1.0787e-08
-7.29322e-12
-5.52743e-06
5.52426e-06
-5.52752e-06
-1.5717e-11
5.52435e-06
-6.76522e-12
-1.41537e-11
-1.51944e-11
-1.54156e-05
-3.16626e-09
1.54063e-05
1.25141e-08
-1.54161e-05
-3.16092e-09
-9.40501e-12
1.54067e-05
1.25032e-08
-1.36947e-11
-2.72332e-09
1.07782e-08
-2.71835e-09
-8.4494e-12
1.07678e-08
-1.52472e-11
-5.52767e-06
5.5245e-06
-5.52782e-06
-9.22897e-12
5.52465e-06
-1.37403e-11
-8.30232e-12
2.0375e-13
-1.54164e-05
-3.15761e-09
1.5407e-05
1.24965e-08
-1.54164e-05
-3.15761e-09
9.78013e-12
1.5407e-05
1.24965e-08
2.03846e-13
-2.71528e-09
1.07615e-08
-2.71528e-09
8.82793e-12
1.07615e-08
2.00726e-13
-5.52791e-06
5.52474e-06
-5.52791e-06
9.60095e-12
5.52474e-06
2.00447e-13
8.67261e-12
1.54596e-11
-1.54161e-05
-3.16092e-09
1.54067e-05
1.25032e-08
-1.54156e-05
-3.16624e-09
1.45568e-11
1.54063e-05
1.25141e-08
1.39749e-11
-2.71837e-09
1.07678e-08
-2.72334e-09
1.32465e-11
1.07782e-08
1.55295e-11
-5.52782e-06
5.52465e-06
-5.52767e-06
1.58466e-11
5.5245e-06
1.4034e-11
1.43474e-11
1.20861e-11
-1.54152e-05
-3.17476e-09
1.54058e-05
1.25231e-08
-1.54149e-05
-3.17392e-09
1.54055e-05
1.25312e-08
1.08116e-11
-2.73108e-09
1.07871e-08
-2.73076e-09
1.07945e-08
7.36944e-12
-5.52752e-06
5.52435e-06
-5.52743e-06
5.52426e-06
6.70974e-12
-1.42503e-11
-1.5395e-05
-4.08033e-09
1.53831e-05
1.60632e-08
-1.53953e-05
-4.08218e-09
-1.67532e-11
1.53833e-05
1.60541e-08
-1.29739e-11
-3.57719e-09
1.41026e-08
-3.57858e-09
-1.5438e-11
1.40942e-08
-8.28645e-12
-5.52069e-06
5.51662e-06
-5.52078e-06
-1.8386e-11
5.51671e-06
-7.75187e-12
-1.6865e-11
-1.77494e-11
-1.53958e-05
-4.07223e-09
1.53838e-05
1.60447e-08
-1.53962e-05
-4.06634e-09
-1.10732e-11
1.53842e-05
1.60329e-08
-1.63152e-11
-3.56948e-09
1.4085e-08
-3.56391e-09
-1.01464e-11
1.40738e-08
-1.78577e-11
-5.52093e-06
5.51686e-06
-5.52108e-06
-1.08581e-11
5.517e-06
-1.6394e-11
-9.95094e-12
1.45984e-13
-1.53965e-05
-4.06266e-09
1.53845e-05
1.60258e-08
-1.53965e-05
-4.06266e-09
1.13528e-11
1.53845e-05
1.60258e-08
1.757e-13
-3.56044e-09
1.40669e-08
-3.56044e-09
1.04751e-11
1.40669e-08
1.43996e-13
-5.52117e-06
5.5171e-06
-5.52117e-06
1.11286e-11
5.5171e-06
1.73057e-13
1.02751e-11
1.79876e-11
-1.53962e-05
-4.06633e-09
1.53842e-05
1.60329e-08
-1.53958e-05
-4.07221e-09
1.6913e-11
1.53838e-05
1.60447e-08
1.65751e-11
-3.5639e-09
1.40737e-08
-3.56946e-09
1.55974e-11
1.4085e-08
1.80863e-11
-5.52108e-06
5.517e-06
-5.52093e-06
1.85566e-11
5.51686e-06
1.66551e-11
1.70373e-11
1.43951e-11
-1.53953e-05
-4.08216e-09
1.53833e-05
1.60541e-08
-1.5395e-05
-4.0804e-09
1.53831e-05
1.60631e-08
1.30789e-11
-3.57858e-09
1.40941e-08
-3.57734e-09
1.41023e-08
8.42164e-12
-5.52078e-06
5.51671e-06
-5.52069e-06
5.51662e-06
7.80586e-12
-1.66492e-11
-1.53698e-05
-5.11015e-09
1.53549e-05
2.00541e-08
-1.53701e-05
-5.11297e-09
-1.89409e-11
1.53551e-05
2.00437e-08
-1.52341e-11
-4.53121e-09
1.78091e-08
-4.53359e-09
-1.77184e-11
1.77995e-08
-9.2102e-12
-5.51209e-06
5.50699e-06
-5.51218e-06
-2.1024e-11
5.50708e-06
-8.64958e-12
-1.95194e-11
-2.01546e-11
-1.53705e-05
-5.10153e-09
1.53556e-05
2.00341e-08
-1.5371e-05
-5.09519e-09
-1.25936e-11
1.5356e-05
2.00216e-08
-1.87814e-11
-4.523e-09
1.77901e-08
-4.51693e-09
-1.17281e-11
1.7778e-08
-2.03227e-11
-5.51233e-06
5.50723e-06
-5.51248e-06
-1.23473e-11
5.50738e-06
-1.89129e-11
-1.14991e-11
1.58037e-13
-1.53713e-05
-5.09124e-09
1.53563e-05
2.0014e-08
-1.53713e-05
-5.09129e-09
1.28925e-11
1.53563e-05
2.00141e-08
1.34335e-13
-4.51314e-09
1.77708e-08
-4.51316e-09
1.1988e-11
1.77708e-08
1.44794e-13
-5.51257e-06
5.50747e-06
-5.51257e-06
1.26187e-11
5.50747e-06
1.27085e-13
1.17429e-11
2.04064e-11
-1.5371e-05
-5.09532e-09
1.5356e-05
2.00218e-08
-1.53705e-05
-5.10174e-09
1.90946e-11
1.53556e-05
2.00345e-08
1.8997e-11
-4.51697e-09
1.77782e-08
-4.52305e-09
1.78321e-11
1.77903e-08
2.05543e-11
-5.51248e-06
5.50738e-06
-5.51233e-06
2.12064e-11
5.50723e-06
1.91163e-11
1.96663e-11
1.6845e-11
-1.53701e-05
-5.11327e-09
1.53551e-05
2.00442e-08
-1.53698e-05
-5.11062e-09
1.53549e-05
2.00544e-08
1.54134e-11
-4.53366e-09
1.77997e-08
-4.53151e-09
1.78091e-08
9.38959e-12
-5.51218e-06
5.50708e-06
-5.5121e-06
5.50699e-06
8.80244e-12
-1.93367e-11
-1.53385e-05
-6.29594e-09
1.53201e-05
2.46255e-08
-1.53387e-05
-6.29963e-09
-2.08241e-11
1.53204e-05
2.4614e-08
-1.78166e-11
-5.62682e-09
2.20435e-08
-5.63004e-09
-1.97012e-11
2.20329e-08
-1.02012e-11
-5.50137e-06
5.49509e-06
-5.50146e-06
-2.35898e-11
5.49518e-06
-9.63564e-12
-2.20825e-11
-2.24131e-11
-1.53392e-05
-6.28653e-09
1.53209e-05
2.46044e-08
-1.53396e-05
-6.27978e-09
-1.40289e-11
1.53213e-05
2.4591e-08
-2.1078e-11
-5.6179e-09
2.20233e-08
-5.61141e-09
-1.31796e-11
2.20106e-08
-2.26629e-11
-5.50161e-06
5.49532e-06
-5.50175e-06
-1.37341e-11
5.49547e-06
-2.12847e-11
-1.29152e-11
2.12511e-13
-1.53399e-05
-6.27553e-09
1.53216e-05
2.4583e-08
-1.53399e-05
-6.27558e-09
1.44323e-11
1.53216e-05
2.45831e-08
1.84938e-13
-5.60737e-09
2.20029e-08
-5.60743e-09
1.35307e-11
2.2003e-08
2.06904e-13
-5.50185e-06
5.49556e-06
-5.50185e-06
1.41265e-11
5.49556e-06
1.72822e-13
1.32426e-11
2.2756e-11
-1.53396e-05
-6.27991e-09
1.53213e-05
2.45913e-08
-1.53392e-05
-6.28676e-09
2.10945e-11
1.53209e-05
2.46048e-08
2.1376e-11
-5.61158e-09
2.20109e-08
-5.61815e-09
1.99194e-11
2.20238e-08
2.29981e-11
-5.50176e-06
5.49547e-06
-5.50161e-06
2.38371e-11
5.49532e-06
2.15661e-11
2.23025e-11
1.946e-11
-1.53387e-05
-6.29994e-09
1.53204e-05
2.46145e-08
-1.53385e-05
-6.2962e-09
1.53202e-05
2.46262e-08
1.79637e-11
-5.63038e-09
2.20335e-08
-5.6273e-09
2.20443e-08
1.03539e-11
-5.50146e-06
5.49518e-06
-5.50138e-06
5.49509e-06
9.78739e-12
-2.17999e-11
-1.53002e-05
-7.66107e-09
1.5278e-05
2.98646e-08
-1.53004e-05
-7.66634e-09
-2.26854e-11
1.52783e-05
2.98514e-08
-2.03586e-11
-6.88535e-09
2.68836e-08
-6.88969e-09
-2.15469e-11
2.68715e-08
-1.09119e-11
-5.48821e-06
5.48056e-06
-5.4883e-06
-2.61041e-11
5.48065e-06
-1.04848e-11
-2.4593e-11
-2.46051e-11
-1.53009e-05
-7.65147e-09
1.52787e-05
2.98419e-08
-1.53013e-05
-7.6443e-09
-1.5437e-11
1.52791e-05
2.98277e-08
-2.32821e-11
-6.87588e-09
2.68621e-08
-6.86898e-09
-1.45906e-11
2.68485e-08
-2.4946e-11
-5.48844e-06
5.48079e-06
-5.48859e-06
-1.50935e-11
5.48093e-06
-2.35702e-11
-1.42728e-11
2.29261e-13
-1.53016e-05
-7.63975e-09
1.52794e-05
2.98192e-08
-1.53016e-05
-7.63975e-09
1.58721e-11
1.52794e-05
2.98192e-08
2.20218e-13
-6.86462e-09
2.68403e-08
-6.86464e-09
1.50079e-11
2.68403e-08
2.34721e-13
-5.48868e-06
5.48102e-06
-5.48868e-06
1.55383e-11
5.48102e-06
2.21687e-13
1.46928e-11
2.49625e-11
-1.53013e-05
-7.64429e-09
1.52791e-05
2.98278e-08
-1.53009e-05
-7.65146e-09
2.28955e-11
1.52787e-05
2.9842e-08
2.36324e-11
-6.86904e-09
2.68486e-08
-6.87598e-09
2.18014e-11
2.68623e-08
2.53219e-11
-5.48859e-06
5.48093e-06
-5.48844e-06
2.63756e-11
5.48079e-06
2.39279e-11
2.48623e-11
2.19888e-11
-1.53004e-05
-7.66635e-09
1.52783e-05
2.98515e-08
-1.53002e-05
-7.66127e-09
1.5278e-05
2.98645e-08
2.0507e-11
-6.88986e-09
2.68718e-08
-6.88557e-09
2.68839e-08
1.10387e-11
-5.4883e-06
5.48065e-06
-5.48822e-06
5.48057e-06
1.06119e-11
-2.44191e-11
-1.52539e-05
-9.23851e-09
1.52273e-05
3.58918e-08
-1.52541e-05
-9.24523e-09
-2.41937e-11
1.52275e-05
3.5877e-08
-2.28707e-11
-8.34308e-09
3.24648e-08
-8.34887e-09
-2.32418e-11
3.24511e-08
-1.13521e-11
-5.47223e-06
5.463e-06
-5.47232e-06
-2.85352e-11
5.46309e-06
-1.10501e-11
-2.70603e-11
-2.65949e-11
-1.52546e-05
-9.22842e-09
1.52279e-05
3.58678e-08
-1.5255e-05
-9.22097e-09
-1.67287e-11
1.52284e-05
3.58529e-08
-2.53765e-11
-8.33322e-09
3.24418e-08
-8.32595e-09
-1.59395e-11
3.24274e-08
-2.70888e-11
-5.47246e-06
5.46323e-06
-5.4726e-06
-1.63553e-11
5.46337e-06
-2.57791e-11
-1.55792e-11
2.58078e-13
-1.52553e-05
-9.21619e-09
1.52287e-05
3.5844e-08
-1.52553e-05
-9.2162e-09
1.72202e-11
1.52287e-05
3.5844e-08
2.45745e-13
-8.32131e-09
3.24188e-08
-8.32131e-09
1.64052e-11
3.24188e-08
2.54618e-13
-5.47269e-06
5.46345e-06
-5.47269e-06
1.68396e-11
5.46345e-06
2.4966e-13
1.60512e-11
2.70073e-11
-1.5255e-05
-9.22097e-09
1.52284e-05
3.5853e-08
-1.52546e-05
-9.22843e-09
2.44779e-11
1.52279e-05
3.58679e-08
2.57625e-11
-8.32593e-09
3.24275e-08
-8.33319e-09
2.35024e-11
3.24419e-08
2.7502e-11
-5.4726e-06
5.46337e-06
-5.47246e-06
2.88325e-11
5.46323e-06
2.61769e-11
2.73468e-11
2.45753e-11
-1.52542e-05
-9.24526e-09
1.52275e-05
3.58771e-08
-1.52539e-05
-9.23858e-09
1.52273e-05
3.58918e-08
2.30268e-11
-8.34888e-09
3.24512e-08
-8.34315e-09
3.24647e-08
1.14934e-11
-5.47232e-06
5.46309e-06
-5.47223e-06
5.46301e-06
1.11649e-11
-2.71524e-11
-1.51985e-05
-1.10517e-08
1.51667e-05
4.27955e-08
-1.51987e-05
-1.10603e-08
-2.55175e-11
1.5167e-05
4.27788e-08
-2.54882e-11
-1.00154e-08
3.88422e-08
-1.00229e-08
-2.46314e-11
3.88269e-08
-1.16286e-11
-5.453e-06
5.44196e-06
-5.45308e-06
-3.09643e-11
5.44204e-06
-1.13765e-11
-2.94379e-11
-2.84558e-11
-1.51991e-05
-1.10413e-08
1.51674e-05
4.27702e-08
-1.51996e-05
-1.10336e-08
-1.79584e-11
1.51678e-05
4.27545e-08
-2.72519e-11
-1.00052e-08
3.88181e-08
-9.99769e-09
-1.71689e-11
3.88029e-08
-2.91533e-11
-5.45322e-06
5.44218e-06
-5.45336e-06
-1.75616e-11
5.44231e-06
-2.78378e-11
-1.67906e-11
2.68837e-13
-1.51998e-05
-1.10287e-08
1.51681e-05
4.27452e-08
-1.51998e-05
-1.10287e-08
1.84709e-11
1.51681e-05
4.27452e-08
2.59931e-13
-9.99289e-09
3.87939e-08
-9.99291e-09
1.76651e-11
3.87939e-08
2.52857e-13
-5.45344e-06
5.4424e-06
-5.45344e-06
1.80444e-11
5.4424e-06
2.4826e-13
1.72648e-11
2.88882e-11
-1.51996e-05
-1.10337e-08
1.51678e-05
4.27545e-08
-1.51991e-05
-1.10414e-08
2.58049e-11
1.51674e-05
4.27702e-08
2.7672e-11
-9.99774e-09
3.88029e-08
-1.00052e-08
2.49245e-11
3.88181e-08
2.95711e-11
-5.45336e-06
5.44231e-06
-5.45322e-06
3.12712e-11
5.44218e-06
2.8247e-11
2.97378e-11
2.73173e-11
-1.51987e-05
-1.10604e-08
1.5167e-05
4.27788e-08
-1.51985e-05
-1.10518e-08
1.51667e-05
4.27954e-08
2.56422e-11
-1.00229e-08
3.88269e-08
-1.00155e-08
3.88422e-08
1.17984e-11
-5.45308e-06
5.44204e-06
-5.453e-06
5.44196e-06
1.15278e-11
-3.01505e-11
-1.51325e-05
-1.31287e-08
1.5095e-05
5.0677e-08
-1.51328e-05
-1.31395e-08
-2.6521e-11
1.50953e-05
5.06584e-08
-2.83336e-11
-1.19425e-08
4.61671e-08
-1.1952e-08
-2.58052e-11
4.61499e-08
-1.18686e-11
-5.43003e-06
5.41691e-06
-5.43011e-06
-3.3469e-11
5.41699e-06
-1.16395e-11
-3.18955e-11
-3.02793e-11
-1.51332e-05
-1.3118e-08
1.50957e-05
5.06505e-08
-1.51336e-05
-1.31101e-08
-1.92048e-11
1.50961e-05
5.06339e-08
-2.90818e-11
-1.1932e-08
4.61417e-08
-1.19243e-08
-1.83975e-11
4.61257e-08
-3.12294e-11
-5.43024e-06
5.41712e-06
-5.43037e-06
-1.87644e-11
5.41725e-06
-2.98971e-11
-1.7988e-11
2.75373e-13
-1.51339e-05
-1.3105e-08
1.50963e-05
5.0624e-08
-1.51339e-05
-1.3105e-08
1.97334e-11
1.50963e-05
5.0624e-08
2.68675e-13
-1.19193e-08
4.61162e-08
-1.19193e-08
1.89127e-11
4.61162e-08
2.68767e-13
-5.43046e-06
5.41733e-06
-5.43046e-06
1.92788e-11
5.41733e-06
2.5437e-13
1.84758e-11
3.0739e-11
-1.51336e-05
-1.31102e-08
1.50961e-05
5.06339e-08
-1.51332e-05
-1.31181e-08
2.68901e-11
1.50957e-05
5.06506e-08
2.95253e-11
-1.19243e-08
4.61257e-08
-1.19321e-08
2.61345e-11
4.61417e-08
3.16782e-11
-5.43038e-06
5.41725e-06
-5.43024e-06
3.38036e-11
5.41712e-06
3.03237e-11
3.22156e-11
3.0293e-11
-1.51328e-05
-1.31396e-08
1.50953e-05
5.06586e-08
-1.51325e-05
-1.31288e-08
1.5095e-05
5.06772e-08
2.84938e-11
-1.19521e-08
4.615e-08
-1.19426e-08
4.61672e-08
1.2036e-11
-5.43011e-06
5.41699e-06
-5.43003e-06
5.41691e-06
1.18099e-11
-3.32803e-11
-1.50547e-05
-1.5496e-08
1.50106e-05
5.96316e-08
-1.5055e-05
-1.55096e-08
-2.7522e-11
1.50109e-05
5.96109e-08
-3.13535e-11
-1.41351e-08
5.44726e-08
-1.4147e-08
-2.67756e-11
5.44535e-08
-1.19574e-11
-5.40279e-06
5.38731e-06
-5.40287e-06
-3.59456e-11
5.38738e-06
-1.18023e-11
-3.43617e-11
-3.20705e-11
-1.50554e-05
-1.54854e-08
1.50112e-05
5.96038e-08
-1.50558e-05
-1.54774e-08
-2.04469e-11
1.50116e-05
5.95863e-08
-3.08636e-11
-1.41244e-08
5.4446e-08
-1.41166e-08
-1.9624e-11
5.44291e-08
-3.32826e-11
-5.40299e-06
5.38751e-06
-5.40312e-06
-1.99673e-11
5.38763e-06
-3.19303e-11
-1.9168e-11
2.51708e-13
-1.5056e-05
-1.54721e-08
1.50119e-05
5.9576e-08
-1.5056e-05
-1.54721e-08
2.09324e-11
1.50119e-05
5.9576e-08
2.66189e-13
-1.41114e-08
5.44191e-08
-1.41114e-08
2.01367e-11
5.44192e-08
2.53651e-13
-5.4032e-06
5.38771e-06
-5.4032e-06
2.04551e-11
5.38771e-06
2.63928e-13
1.96737e-11
3.24935e-11
-1.50558e-05
-1.54774e-08
1.50116e-05
5.95864e-08
-1.50554e-05
-1.54855e-08
2.78402e-11
1.50112e-05
5.96041e-08
3.13076e-11
-1.41166e-08
5.44292e-08
-1.41246e-08
2.71007e-11
5.44462e-08
3.37148e-11
-5.40312e-06
5.38763e-06
-5.403e-06
3.62912e-11
5.38751e-06
3.23737e-11
3.46983e-11
3.34413e-11
-1.5055e-05
-1.55097e-08
1.50109e-05
5.96112e-08
-1.50547e-05
-1.54962e-08
1.50106e-05
5.96319e-08
3.1504e-11
-1.41472e-08
5.44537e-08
-1.41353e-08
5.44729e-08
1.21134e-11
-5.40287e-06
5.38738e-06
-5.40279e-06
5.38731e-06
1.1962e-11
-3.66511e-11
-1.49634e-05
-1.81869e-08
1.49118e-05
6.97804e-08
-1.49636e-05
-1.82034e-08
-2.85283e-11
1.4912e-05
6.97575e-08
-3.45642e-11
-1.6633e-08
6.39052e-08
-1.66476e-08
-2.77419e-11
6.38839e-08
-1.18099e-11
-5.37068e-06
5.35251e-06
-5.37076e-06
-3.84173e-11
5.35258e-06
-1.17631e-11
-3.68022e-11
-3.383e-11
-1.4964e-05
-1.81764e-08
1.49124e-05
6.97512e-08
-1.49644e-05
-1.81682e-08
-2.16687e-11
1.49128e-05
6.97328e-08
-3.26092e-11
-1.66223e-08
6.38773e-08
-1.66143e-08
-2.08424e-11
6.38595e-08
-3.53219e-11
-5.37088e-06
5.3527e-06
-5.37101e-06
-2.11626e-11
5.35282e-06
-3.3946e-11
-2.03544e-11
2.33024e-13
-1.49646e-05
-1.81628e-08
1.4913e-05
6.9722e-08
-1.49646e-05
-1.81628e-08
2.21179e-11
1.4913e-05
6.97221e-08
2.33822e-13
-1.6609e-08
6.38491e-08
-1.6609e-08
2.12949e-11
6.38491e-08
2.30342e-13
-5.37108e-06
5.3529e-06
-5.37108e-06
2.16076e-11
5.3529e-06
2.35375e-13
2.08095e-11
3.42239e-11
-1.49644e-05
-1.81683e-08
1.49128e-05
6.97329e-08
-1.4964e-05
-1.81765e-08
2.88396e-11
1.49124e-05
6.97515e-08
3.30058e-11
-1.66144e-08
6.38597e-08
-1.66224e-08
2.80422e-11
6.38776e-08
3.57247e-11
-5.37101e-06
5.35282e-06
-5.37088e-06
3.87554e-11
5.3527e-06
3.43567e-11
3.7134e-11
3.68331e-11
-1.49636e-05
-1.82035e-08
1.4912e-05
6.97578e-08
-1.49634e-05
-1.8187e-08
1.49118e-05
6.97809e-08
3.47454e-11
-1.66477e-08
6.38842e-08
-1.6633e-08
6.39056e-08
1.2005e-11
-5.37076e-06
5.35259e-06
-5.37069e-06
5.35251e-06
1.19714e-11
-4.01836e-11
-1.48568e-05
-2.1202e-08
1.47969e-05
8.1121e-08
-1.4857e-05
-2.12218e-08
-2.95919e-11
1.47971e-05
8.10954e-08
-3.79656e-11
-1.9456e-08
7.4536e-08
-1.94737e-08
-2.87742e-11
7.45123e-08
-1.14632e-11
-5.33307e-06
5.31187e-06
-5.33314e-06
-4.08689e-11
5.31195e-06
-1.152e-11
-3.92376e-11
-3.55477e-11
-1.48574e-05
-2.11919e-08
1.47975e-05
8.10899e-08
-1.48577e-05
-2.11835e-08
-2.28363e-11
1.47978e-05
8.10704e-08
-3.43374e-11
-1.94455e-08
7.45065e-08
-1.94373e-08
-2.20311e-11
7.44877e-08
-3.73199e-11
-5.33325e-06
5.31206e-06
-5.33337e-06
-2.23015e-11
5.31217e-06
-3.59493e-11
-2.1513e-11
2.57441e-13
-1.4858e-05
-2.11778e-08
1.47981e-05
8.10591e-08
-1.4858e-05
-2.11779e-08
2.33323e-11
1.47981e-05
8.10592e-08
2.3476e-13
-1.94318e-08
7.44768e-08
-1.94318e-08
2.24851e-11
7.44769e-08
2.54585e-13
-5.33344e-06
5.31224e-06
-5.33344e-06
2.27884e-11
5.31224e-06
2.35795e-13
2.19651e-11
3.59699e-11
-1.48577e-05
-2.11835e-08
1.47978e-05
8.10707e-08
-1.48574e-05
-2.1192e-08
2.98703e-11
1.47975e-05
8.10903e-08
3.47318e-11
-1.94374e-08
7.4488e-08
-1.94456e-08
2.90569e-11
7.45068e-08
3.77451e-11
-5.33337e-06
5.31217e-06
-5.33326e-06
4.1194e-11
5.31206e-06
3.63507e-11
3.95562e-11
4.03988e-11
-1.4857e-05
-2.12221e-08
1.47971e-05
8.10959e-08
-1.48568e-05
-2.12023e-08
1.47969e-05
8.11214e-08
3.81721e-11
-1.94738e-08
7.45127e-08
-1.94562e-08
7.45364e-08
1.16436e-11
-5.33314e-06
5.31195e-06
-5.33307e-06
5.31188e-06
1.17035e-11
-4.41134e-11
-1.47331e-05
-2.45831e-08
1.4664e-05
9.38054e-08
-1.47333e-05
-2.46063e-08
-3.05555e-11
1.46642e-05
9.37774e-08
-4.16925e-11
-2.26242e-08
8.64361e-08
-2.26452e-08
-2.97736e-11
8.64101e-08
-1.09878e-11
-5.28926e-06
5.26469e-06
-5.28933e-06
-4.32663e-11
5.26476e-06
-1.11403e-11
-4.16439e-11
-3.72019e-11
-1.47337e-05
-2.45731e-08
1.46645e-05
9.37725e-08
-1.47341e-05
-2.45644e-08
-2.39512e-11
1.46649e-05
9.37519e-08
-3.60094e-11
-2.2614e-08
8.64049e-08
-2.26055e-08
-2.31576e-11
8.63851e-08
-3.92694e-11
-5.28944e-06
5.26487e-06
-5.28955e-06
-2.33915e-11
5.26497e-06
-3.79087e-11
-2.26141e-11
3.15618e-13
-1.47343e-05
-2.45586e-08
1.46651e-05
9.37401e-08
-1.47343e-05
-2.45586e-08
2.45433e-11
1.46651e-05
9.37402e-08
2.86111e-13
-2.25998e-08
8.63737e-08
-2.25998e-08
2.37015e-11
8.63738e-08
3.05194e-13
-5.28962e-06
5.26504e-06
-5.28962e-06
2.39632e-11
5.26504e-06
2.82514e-13
2.31465e-11
3.76775e-11
-1.47341e-05
-2.45645e-08
1.46649e-05
9.37523e-08
-1.47337e-05
-2.45733e-08
3.0876e-11
1.46645e-05
9.3773e-08
3.64595e-11
-2.26056e-08
8.63854e-08
-2.26141e-08
3.00804e-11
8.64054e-08
3.97442e-11
-5.28955e-06
5.26497e-06
-5.28944e-06
4.36122e-11
5.26487e-06
3.83598e-11
4.1984e-11
4.42328e-11
-1.47333e-05
-2.46066e-08
1.46642e-05
9.3778e-08
-1.47331e-05
-2.45832e-08
1.4664e-05
9.38062e-08
4.18551e-11
-2.26454e-08
8.64106e-08
-2.26243e-08
8.64367e-08
1.11526e-11
-5.28933e-06
5.26476e-06
-5.28926e-06
5.26469e-06
1.13074e-11
-4.80052e-11
-1.45905e-05
-2.83384e-08
1.4511e-05
1.07862e-07
-1.45907e-05
-2.83657e-08
-3.15315e-11
1.45112e-05
1.07831e-07
-4.55733e-11
-2.61564e-08
9.96709e-08
-2.61811e-08
-3.07344e-11
9.96424e-08
-1.01413e-11
-5.23855e-06
5.21022e-06
-5.23861e-06
-4.56065e-11
5.21028e-06
-1.04804e-11
-4.39865e-11
-3.8853e-11
-1.4591e-05
-2.8329e-08
1.45115e-05
1.07827e-07
-1.45914e-05
-2.832e-08
-2.50959e-11
1.45119e-05
1.07805e-07
-3.76351e-11
-2.61465e-08
9.96378e-08
-2.61378e-08
-2.42632e-11
9.96169e-08
-4.12169e-11
-5.23872e-06
5.21038e-06
-5.23882e-06
-2.45046e-11
5.21048e-06
-3.98278e-11
-2.36959e-11
3.16665e-13
-1.45916e-05
-2.8314e-08
1.45121e-05
1.07793e-07
-1.45916e-05
-2.8314e-08
2.56893e-11
1.45121e-05
1.07793e-07
3.25393e-13
-2.61319e-08
9.96049e-08
-2.61319e-08
2.48684e-11
9.9605e-08
3.0897e-13
-5.23889e-06
5.21055e-06
-5.23889e-06
2.50825e-11
5.21055e-06
3.12296e-13
2.42769e-11
3.93299e-11
-1.45914e-05
-2.83201e-08
1.45119e-05
1.07805e-07
-1.4591e-05
-2.83292e-08
3.18575e-11
1.45115e-05
1.07827e-07
3.81126e-11
-2.61379e-08
9.96172e-08
-2.61467e-08
3.10528e-11
9.96382e-08
4.16981e-11
-5.23882e-06
5.21048e-06
-5.23872e-06
4.59702e-11
5.21038e-06
4.03045e-11
4.43344e-11
4.81339e-11
-1.45907e-05
-2.83659e-08
1.45112e-05
1.07832e-07
-1.45905e-05
-2.83385e-08
1.4511e-05
1.07862e-07
4.57018e-11
-2.61814e-08
9.9643e-08
-2.61566e-08
9.96717e-08
1.02943e-11
-5.23861e-06
5.21028e-06
-5.23855e-06
5.21022e-06
1.06582e-11
-5.2006e-11
-1.44268e-05
-3.24774e-08
1.43361e-05
1.23322e-07
-1.4427e-05
-3.25092e-08
-3.24743e-11
1.43362e-05
1.23289e-07
-4.94551e-11
-3.0065e-08
1.14284e-07
-3.00939e-08
-3.16957e-11
1.14252e-07
-8.95992e-12
-5.18016e-06
5.14769e-06
-5.18022e-06
-4.78959e-11
5.14775e-06
-9.46694e-12
-4.62839e-11
-4.04724e-11
-1.44273e-05
-3.24689e-08
1.43365e-05
1.23285e-07
-1.44277e-05
-3.24596e-08
-2.62565e-11
1.43369e-05
1.23262e-07
-3.92618e-11
-3.00558e-08
1.14248e-07
-3.00467e-08
-2.54148e-11
1.14226e-07
-4.31519e-11
-5.18032e-06
5.14785e-06
-5.18042e-06
-2.56449e-11
5.14794e-06
-4.17558e-11
-2.48187e-11
2.59569e-13
-1.44279e-05
-3.24533e-08
1.43371e-05
1.23249e-07
-1.44279e-05
-3.24533e-08
2.67684e-11
1.43371e-05
1.23249e-07
2.87382e-13
-3.00406e-08
1.14213e-07
-3.00407e-08
2.59661e-11
1.14214e-07
2.54896e-13
-5.18048e-06
5.148e-06
-5.18048e-06
2.61447e-11
5.148e-06
2.80999e-13
2.53555e-11
4.09359e-11
-1.44277e-05
-3.24596e-08
1.43369e-05
1.23262e-07
-1.44273e-05
-3.2469e-08
3.28193e-11
1.43365e-05
1.23285e-07
3.97295e-11
-3.00468e-08
1.14226e-07
-3.00559e-08
3.20183e-11
1.14249e-07
4.36209e-11
-5.18042e-06
5.14794e-06
-5.18032e-06
4.82941e-11
5.14785e-06
4.22275e-11
4.66547e-11
5.22082e-11
-1.4427e-05
-3.25095e-08
1.43362e-05
1.23289e-07
-1.44268e-05
-3.24777e-08
1.43361e-05
1.23323e-07
4.96338e-11
-3.00942e-08
1.14253e-07
-3.00653e-08
1.14284e-07
9.17696e-12
-5.18023e-06
5.14776e-06
-5.18016e-06
5.1477e-06
9.64516e-12
-5.62264e-11
-1.42402e-05
-3.69938e-08
1.41371e-05
1.40159e-07
-1.42404e-05
-3.70304e-08
-3.34416e-11
1.41373e-05
1.40122e-07
-5.34943e-11
-3.43424e-08
1.30241e-07
-3.43758e-08
-3.26056e-11
1.30207e-07
-7.61252e-12
-5.11336e-06
5.07637e-06
-5.11342e-06
-5.01929e-11
5.07643e-06
-8.20045e-12
-4.85209e-11
-4.20539e-11
-1.42407e-05
-3.69862e-08
1.41376e-05
1.40118e-07
-1.4241e-05
-3.69765e-08
-2.7361e-11
1.41379e-05
1.40094e-07
-4.083e-11
-3.4334e-08
1.30204e-07
-3.43246e-08
-2.65394e-11
1.3018e-07
-4.50612e-11
-5.11351e-06
5.07652e-06
-5.1136e-06
-2.67346e-11
5.0766e-06
-4.36491e-11
-2.59266e-11
2.52559e-13
-1.42412e-05
-3.69701e-08
1.4138e-05
1.4008e-07
-1.42412e-05
-3.69701e-08
2.7858e-11
1.4138e-05
1.4008e-07
2.36846e-13
-3.43183e-08
1.30167e-07
-3.43184e-08
2.70171e-11
1.30167e-07
2.44056e-13
-5.11366e-06
5.07666e-06
-5.11366e-06
2.72097e-11
5.07666e-06
2.36387e-13
2.63963e-11
4.2501e-11
-1.4241e-05
-3.69767e-08
1.41379e-05
1.40095e-07
-1.42407e-05
-3.69864e-08
3.37444e-11
1.41376e-05
1.40119e-07
4.12816e-11
-3.43247e-08
1.3018e-07
-3.43341e-08
3.29412e-11
1.30204e-07
4.55051e-11
-5.1136e-06
5.0766e-06
-5.11351e-06
5.05618e-11
5.07652e-06
4.41024e-11
4.89229e-11
5.64759e-11
-1.42404e-05
-3.70308e-08
1.41373e-05
1.40123e-07
-1.42402e-05
-3.69943e-08
1.41371e-05
1.40159e-07
5.37189e-11
-3.4376e-08
1.30208e-07
-3.43426e-08
1.30242e-07
7.85585e-12
-5.11342e-06
5.07643e-06
-5.11336e-06
5.07637e-06
8.43436e-12
-6.08813e-11
-1.40285e-05
-4.18904e-08
1.39121e-05
1.5838e-07
-1.40287e-05
-4.19322e-08
-3.44421e-11
1.39123e-05
1.5834e-07
-5.79065e-11
-3.9012e-08
1.47631e-07
-3.90503e-08
-3.36118e-11
1.47594e-07
-6.34276e-12
-5.03737e-06
4.99548e-06
-5.03742e-06
-5.25123e-11
4.99554e-06
-6.91149e-12
-5.08283e-11
-4.36422e-11
-1.4029e-05
-4.18839e-08
1.39125e-05
1.58337e-07
-1.40293e-05
-4.18738e-08
-2.84285e-11
1.39128e-05
1.58311e-07
-4.242e-11
-3.90045e-08
1.47591e-07
-3.89947e-08
-2.76128e-11
1.47566e-07
-4.69586e-11
-5.03751e-06
4.99562e-06
-5.03759e-06
-2.77658e-11
4.9957e-06
-4.55408e-11
-2.69703e-11
2.99998e-13
-1.40294e-05
-4.18671e-08
1.3913e-05
1.58297e-07
-1.40294e-05
-4.18671e-08
2.89776e-11
1.3913e-05
1.58297e-07
2.75462e-13
-3.89882e-08
1.47552e-07
-3.89882e-08
2.81278e-11
1.47552e-07
2.96479e-13
-5.03764e-06
4.99575e-06
-5.03764e-06
2.83078e-11
4.99575e-06
2.66331e-13
2.74675e-11
4.4061e-11
-1.40293e-05
-4.18739e-08
1.39128e-05
1.58312e-07
-1.4029e-05
-4.1884e-08
3.46894e-11
1.39125e-05
1.58337e-07
4.28384e-11
-3.89949e-08
1.47566e-07
-3.90047e-08
3.38729e-11
1.47591e-07
4.73947e-11
-5.03759e-06
4.9957e-06
-5.03751e-06
5.28436e-11
4.99562e-06
4.59616e-11
5.11579e-11
6.10972e-11
-1.40287e-05
-4.19324e-08
1.39123e-05
1.58341e-07
-1.40285e-05
-4.18907e-08
1.39121e-05
1.5838e-07
5.81333e-11
-3.90507e-08
1.47595e-07
-3.90127e-08
1.47632e-07
6.5179e-12
-5.03742e-06
4.99554e-06
-5.03737e-06
4.99548e-06
7.08124e-12
-6.57259e-11
-1.37899e-05
-4.71475e-08
1.36592e-05
1.7791e-07
-1.379e-05
-4.71943e-08
-3.53552e-11
1.36593e-05
1.77867e-07
-6.26575e-11
-4.40403e-08
1.66324e-07
-4.40836e-08
-3.45394e-11
1.66284e-07
-4.80407e-12
-4.95145e-06
4.9043e-06
-4.9515e-06
-5.475e-11
4.90436e-06
-5.54308e-12
-5.30868e-11
-4.51123e-11
-1.37903e-05
-4.71419e-08
1.36596e-05
1.77864e-07
-1.37906e-05
-4.71314e-08
-2.94571e-11
1.36598e-05
1.77838e-07
-4.39134e-11
-4.40337e-08
1.66281e-07
-4.40236e-08
-2.86301e-11
1.66255e-07
-4.87745e-11
-4.95158e-06
4.90443e-06
-4.95165e-06
-2.87949e-11
4.9045e-06
-4.73708e-11
-2.79855e-11
3.0474e-13
-1.37907e-05
-4.71245e-08