/*--------------------------------*- C++ -*----------------------------------*\
  =========                 |
  \\      /  F ield         | OpenFOAM: The Open Source CFD Toolbox
   \\    /   O peration     | Website:  https://openfoam.org
    \\  /    A nd           | Version:  9
     \\/     M anipulation  |
\*---------------------------------------------------------------------------*/
FoamFile
{
    format      ascii;
    class       volVectorField;
    location    "0.3";
    object      U;
}
// * * * * * * * * * * * * * * * * * * * * * * * * * * * * * * * * * * * * * //

dimensions      [0 1 -1 0 0 0 0];

internalField   nonuniform List<vector> 
36360
(
(1.35761e-06 -0.0293532 -0.936515)
(1.32852e-06 -0.0293537 -6.57652e-09)
(1.98772e-06 -0.0293571 -0.945438)
(2.00846e-06 -0.0293576 4.20905e-09)
(1.36942e-07 -0.0105234 -0.924077)
(1.22914e-07 -0.0105236 -5.43153e-09)
(4.62907e-07 -0.0105253 -0.932514)
(4.68952e-07 -0.0105255 3.65373e-09)
(1.31256e-06 -0.0293545 -3.07583e-09)
(1.30175e-06 -0.0293554 -2.16728e-09)
(2.00789e-06 -0.0293584 -7.90702e-10)
(2.00124e-06 -0.0293593 -8.88148e-10)
(1.17655e-07 -0.0105238 -3.30496e-09)
(1.14926e-07 -0.0105241 -2.27903e-09)
(4.68822e-07 -0.0105257 -7.4847e-10)
(4.66999e-07 -0.010526 -8.85228e-10)
(1.29709e-06 -0.0293559 -7.92326e-10)
(1.30071e-06 -0.0293559 9.23663e-10)
(1.99818e-06 -0.0293598 -2.52732e-10)
(2.00299e-06 -0.0293598 5.69383e-10)
(1.13744e-07 -0.0105242 -7.86655e-10)
(1.14472e-07 -0.0105242 1.03012e-09)
(4.66126e-07 -0.0105262 -2.367e-10)
(4.67373e-07 -0.0105262 6.22517e-10)
(1.31229e-06 -0.0293554 2.27117e-09)
(1.32906e-06 -0.0293545 3.13251e-09)
(2.01526e-06 -0.0293593 1.16821e-09)
(2.02983e-06 -0.0293585 1.00192e-09)
(1.1705e-07 -0.0105241 2.48291e-09)
(1.20993e-07 -0.0105238 3.44142e-09)
(4.70635e-07 -0.010526 1.22584e-09)
(4.74528e-07 -0.0105258 1.0111e-09)
(1.34948e-06 -0.0293537 6.80153e-09)
(1.3809e-06 -0.0293533 0.936515)
(2.0363e-06 -0.0293577 -4.10115e-09)
(2.01891e-06 -0.0293572 0.945438)
(1.27191e-07 -0.0105236 5.61635e-09)
(1.42227e-07 -0.0105235 0.924077)
(4.76204e-07 -0.0105255 -3.56263e-09)
(4.71284e-07 -0.0105254 0.932514)
(2.53175e-06 -0.0293465 -0.935785)
(2.522e-06 -0.029347 -6.65609e-09)
(1.63824e-06 -0.0293505 -0.935975)
(1.62694e-06 -0.0293511 -5.25242e-09)
(1.8961e-07 -0.0105215 -0.923366)
(1.80518e-07 -0.0105217 -5.99778e-09)
(9.29124e-08 -0.0105227 -0.923551)
(8.62506e-08 -0.0105228 -5.05026e-09)
(2.51008e-06 -0.0293479 -6.53534e-09)
(2.4996e-06 -0.0293488 -4.99159e-09)
(1.6158e-06 -0.0293519 -4.48138e-09)
(1.60643e-06 -0.0293528 -3.43754e-09)
(1.75603e-07 -0.010522 -6.62519e-09)
(1.72797e-07 -0.0105223 -5.06407e-09)
(8.27215e-08 -0.0105231 -4.72301e-09)
(8.06991e-08 -0.0105234 -3.57314e-09)
(2.49365e-06 -0.0293493 -1.83562e-09)
(2.49473e-06 -0.0293493 2.01544e-09)
(1.60145e-06 -0.0293533 -1.29617e-09)
(1.60376e-06 -0.0293533 1.42729e-09)
(1.71234e-07 -0.0105224 -1.83301e-09)
(1.71364e-07 -0.0105224 2.05914e-09)
(7.95356e-08 -0.0105236 -1.29603e-09)
(7.99187e-08 -0.0105236 1.51005e-09)
(2.50276e-06 -0.0293488 5.15353e-09)
(2.515e-06 -0.0293479 6.67712e-09)
(1.61314e-06 -0.0293528 3.54277e-09)
(1.62629e-06 -0.0293519 4.55636e-09)
(1.7317e-07 -0.0105223 5.2686e-09)
(1.76173e-07 -0.010522 6.80239e-09)
(8.18095e-08 -0.0105234 3.75679e-09)
(8.44366e-08 -0.0105231 4.86529e-09)
(2.52823e-06 -0.0293471 6.80983e-09)
(2.53872e-06 -0.0293465 0.935785)
(1.64023e-06 -0.0293511 5.41789e-09)
(1.65318e-06 -0.0293505 0.935975)
(1.81237e-07 -0.0105217 6.16287e-09)
(1.90622e-07 -0.0105215 0.923366)
(8.84469e-08 -0.0105229 5.16308e-09)
(9.5949e-08 -0.0105227 0.923551)
(4.96638e-06 -0.0293328 -0.935035)
(4.9542e-06 -0.0293333 -9.86019e-09)
(3.70101e-06 -0.0293407 -0.935239)
(3.6896e-06 -0.0293412 -8.34111e-09)
(4.75699e-07 -0.0105171 -0.922635)
(4.5864e-07 -0.0105173 -8.37929e-09)
(3.2947e-07 -0.0105197 -0.922834)
(3.16108e-07 -0.0105199 -7.22415e-09)
(4.94158e-06 -0.0293342 -9.88137e-09)
(4.93058e-06 -0.0293351 -7.70674e-09)
(3.67714e-06 -0.0293421 -8.26307e-09)
(3.66634e-06 -0.0293429 -6.36762e-09)
(4.51172e-07 -0.0105176 -9.92647e-09)
(4.47506e-07 -0.0105179 -7.7492e-09)
(3.09847e-07 -0.0105201 -8.33283e-09)
(3.06579e-07 -0.0105204 -6.4279e-09)
(4.92385e-06 -0.0293356 -2.8257e-09)
(4.92379e-06 -0.0293356 3.14765e-09)
(3.65991e-06 -0.0293435 -2.33039e-09)
(3.66019e-06 -0.0293435 2.58208e-09)
(4.45495e-07 -0.010518 -2.81614e-09)
(4.4543e-07 -0.010518 3.14507e-09)
(3.0478e-07 -0.0105206 -2.32759e-09)
(3.04758e-07 -0.0105206 2.60181e-09)
(4.93041e-06 -0.0293351 8.01504e-09)
(4.94131e-06 -0.0293342 1.0154e-08)
(3.66715e-06 -0.0293429 6.60493e-09)
(3.6784e-06 -0.0293421 8.47508e-09)
(4.47314e-07 -0.0105179 8.05918e-09)
(4.5087e-07 -0.0105176 1.02036e-08)
(3.06515e-07 -0.0105204 6.68193e-09)
(3.0974e-07 -0.0105201 8.55446e-09)
(4.95385e-06 -0.0293333 9.94431e-09)
(4.96608e-06 -0.0293328 0.935035)
(3.69116e-06 -0.0293412 8.46923e-09)
(3.70267e-06 -0.0293407 0.935239)
(4.58203e-07 -0.0105173 8.54586e-09)
(4.74947e-07 -0.0105171 0.922635)
(3.15939e-07 -0.0105199 7.43923e-09)
(3.29057e-07 -0.0105197 0.922834)
(7.58029e-06 -0.0293108 -0.934257)
(7.56537e-06 -0.0293113 -1.26614e-08)
(6.26021e-06 -0.0293228 -0.934458)
(6.24683e-06 -0.0293234 -1.12586e-08)
(7.54434e-07 -0.0105097 -0.921877)
(7.29974e-07 -0.0105099 -1.05137e-08)
(6.16462e-07 -0.0105138 -0.922073)
(5.95736e-07 -0.010514 -9.4373e-09)
(7.55141e-06 -0.0293122 -1.311e-08)
(7.53931e-06 -0.0293131 -1.03716e-08)
(6.23368e-06 -0.0293243 -1.14996e-08)
(6.22223e-06 -0.0293251 -9.04272e-09)
(7.19884e-07 -0.0105102 -1.31167e-08)
(7.15268e-07 -0.0105105 -1.03765e-08)
(5.86996e-07 -0.0105142 -1.15256e-08)
(5.82875e-07 -0.0105145 -9.06581e-09)
(7.53185e-06 -0.0293136 -3.82054e-09)
(7.5318e-06 -0.0293136 4.24266e-09)
(6.21517e-06 -0.0293257 -3.32006e-09)
(6.21506e-06 -0.0293257 3.7043e-09)
(7.12796e-07 -0.0105106 -3.79271e-09)
(7.12787e-07 -0.0105106 4.20922e-09)
(5.80643e-07 -0.0105147 -3.30266e-09)
(5.80603e-07 -0.0105147 3.68253e-09)
(7.53918e-06 -0.0293131 1.07319e-08)
(7.55124e-06 -0.0293122 1.33666e-08)
(6.22193e-06 -0.0293251 9.38865e-09)
(6.23323e-06 -0.0293243 1.17751e-08)
(7.15245e-07 -0.0105105 1.07347e-08)
(7.19856e-07 -0.0105102 1.33658e-08)
(5.82757e-07 -0.0105145 9.40573e-09)
(5.86815e-07 -0.0105142 1.17927e-08)
(7.5652e-06 -0.0293113 1.28626e-08)
(7.58002e-06 -0.0293108 0.934257)
(6.24628e-06 -0.0293234 1.1403e-08)
(6.25963e-06 -0.0293228 0.934458)
(7.29992e-07 -0.0105099 1.06524e-08)
(7.54674e-07 -0.0105097 0.921877)
(5.955e-07 -0.010514 9.60541e-09)
(6.16136e-07 -0.0105138 0.922073)
(1.04016e-05 -0.02928 -0.93345)
(1.03834e-05 -0.0292805 -1.57239e-08)
(8.95226e-06 -0.0292965 -0.933667)
(8.93584e-06 -0.029297 -1.41604e-08)
(1.04541e-06 -0.0104993 -0.921091)
(1.01247e-06 -0.0104995 -1.27859e-08)
(8.95875e-07 -0.0105049 -0.921302)
(8.67431e-07 -0.0105051 -1.16595e-08)
(1.03674e-05 -0.0292814 -1.62781e-08)
(1.03536e-05 -0.0292823 -1.29657e-08)
(8.9209e-06 -0.0292979 -1.46899e-08)
(8.90802e-06 -0.0292988 -1.1673e-08)
(9.99389e-07 -0.0104998 -1.62673e-08)
(9.93715e-07 -0.0105001 -1.29535e-08)
(8.55886e-07 -0.0105054 -1.46774e-08)
(8.50751e-07 -0.0105056 -1.16666e-08)
(1.03451e-05 -0.0292829 -4.82184e-09)
(1.03451e-05 -0.0292829 5.25607e-09)
(8.90006e-06 -0.0292993 -4.31854e-09)
(8.90005e-06 -0.0292993 4.76179e-09)
(9.90711e-07 -0.0105002 -4.77423e-09)
(9.90715e-07 -0.0105002 5.20718e-09)
(8.48021e-07 -0.0105058 -4.28154e-09)
(8.48033e-07 -0.0105058 4.71888e-09)
(1.03536e-05 -0.0292823 1.33278e-08)
(1.03673e-05 -0.0292814 1.65254e-08)
(8.90801e-06 -0.0292988 1.20459e-08)
(8.92091e-06 -0.0292979 1.49479e-08)
(9.93724e-07 -0.0105001 1.33201e-08)
(9.99405e-07 -0.0104998 1.65118e-08)
(8.50783e-07 -0.0105056 1.20403e-08)
(8.55941e-07 -0.0105054 1.49384e-08)
(1.03834e-05 -0.0292805 1.59372e-08)
(1.04016e-05 -0.02928 0.93345)
(8.93591e-06 -0.029297 1.43438e-08)
(8.95236e-06 -0.0292965 0.933667)
(1.01256e-06 -0.0104995 1.29191e-08)
(1.04574e-06 -0.0104993 0.921091)
(8.67568e-07 -0.0105051 1.17211e-08)
(8.96469e-07 -0.0105049 0.921302)
(1.36224e-05 -0.0292399 -0.932621)
(1.36004e-05 -0.0292404 -1.89647e-08)
(1.19527e-05 -0.0292612 -0.932837)
(1.19327e-05 -0.0292617 -1.73489e-08)
(1.38171e-06 -0.0104857 -0.920283)
(1.33921e-06 -0.0104859 -1.50799e-08)
(1.20679e-06 -0.0104929 -0.920493)
(1.16916e-06 -0.0104931 -1.3947e-08)
(1.35821e-05 -0.0292413 -1.94088e-08)
(1.35667e-05 -0.0292422 -1.55051e-08)
(1.19155e-05 -0.0292626 -1.78326e-08)
(1.19009e-05 -0.0292635 -1.4235e-08)
(1.32276e-06 -0.0104861 -1.94046e-08)
(1.31602e-06 -0.0104864 -1.55045e-08)
(1.15443e-06 -0.0104934 -1.7825e-08)
(1.14822e-06 -0.0104937 -1.42268e-08)
(1.35572e-05 -0.0292427 -5.84236e-09)
(1.35572e-05 -0.0292427 6.16761e-09)
(1.18919e-05 -0.029264 -5.33193e-09)
(1.18919e-05 -0.029264 5.71667e-09)
(1.31251e-06 -0.0104866 -5.78517e-09)
(1.31251e-06 -0.0104866 6.10237e-09)
(1.14496e-06 -0.0104938 -5.27821e-09)
(1.14495e-06 -0.0104938 5.65981e-09)
(1.35667e-05 -0.0292422 1.57955e-08)
(1.35821e-05 -0.0292413 1.96425e-08)
(1.19009e-05 -0.0292635 1.45684e-08)
(1.19154e-05 -0.0292626 1.80835e-08)
(1.316e-06 -0.0104864 1.57867e-08)
(1.3227e-06 -0.0104861 1.96316e-08)
(1.14821e-06 -0.0104937 1.45585e-08)
(1.15441e-06 -0.0104934 1.807e-08)
(1.36005e-05 -0.0292404 1.91583e-08)
(1.36226e-05 -0.0292399 0.932621)
(1.19327e-05 -0.0292617 1.75186e-08)
(1.19526e-05 -0.0292612 0.932837)
(1.33913e-06 -0.0104859 1.52645e-08)
(1.38192e-06 -0.0104857 0.920283)
(1.16915e-06 -0.0104931 1.40786e-08)
(1.20701e-06 -0.0104929 0.920493)
(1.73858e-05 -0.0291892 -0.931754)
(1.73591e-05 -0.0291897 -2.23357e-08)
(1.54291e-05 -0.0292159 -0.931975)
(1.54051e-05 -0.0292165 -2.06028e-08)
(1.78009e-06 -0.0104684 -0.919437)
(1.7264e-06 -0.0104686 -1.73941e-08)
(1.57225e-06 -0.0104775 -0.919653)
(1.52451e-06 -0.0104777 -1.62263e-08)
(1.73384e-05 -0.0291906 -2.25558e-08)
(1.73216e-05 -0.0291915 -1.79854e-08)
(1.53855e-05 -0.0292173 -2.09849e-08)
(1.53694e-05 -0.0292182 -1.67556e-08)
(1.70629e-06 -0.0104689 -2.2565e-08)
(1.69856e-06 -0.0104691 -1.80059e-08)
(1.50626e-06 -0.010478 -2.09856e-08)
(1.499e-06 -0.0104783 -1.67628e-08)
(1.73112e-05 -0.029192 -6.78419e-09)
(1.73114e-05 -0.029192 7.14314e-09)
(1.53595e-05 -0.0292187 -6.32755e-09)
(1.53595e-05 -0.0292187 6.63655e-09)
(1.69463e-06 -0.0104693 -6.72536e-09)
(1.69466e-06 -0.0104693 7.05565e-09)
(1.49526e-06 -0.0104784 -6.26855e-09)
(1.49527e-06 -0.0104784 6.56127e-09)
(1.73219e-05 -0.0291915 1.83058e-08)
(1.73389e-05 -0.0291906 2.28204e-08)
(1.53695e-05 -0.0292182 1.70307e-08)
(1.53857e-05 -0.0292173 2.12076e-08)
(1.69866e-06 -0.0104691 1.83009e-08)
(1.70642e-06 -0.0104689 2.28098e-08)
(1.499e-06 -0.0104783 1.70237e-08)
(1.50622e-06 -0.010478 2.11971e-08)
(1.73599e-05 -0.0291897 2.25811e-08)
(1.73868e-05 -0.0291892 0.931754)
(1.54054e-05 -0.0292165 2.08173e-08)
(1.54297e-05 -0.0292159 0.931975)
(1.7266e-06 -0.0104686 1.76205e-08)
(1.78061e-06 -0.0104684 0.919437)
(1.52445e-06 -0.0104777 1.64186e-08)
(1.5727e-06 -0.0104775 0.919653)
(2.18207e-05 -0.0291266 -0.930865)
(2.17885e-05 -0.0291271 -2.59871e-08)
(1.95118e-05 -0.0291595 -0.931103)
(1.94826e-05 -0.02916 -2.41451e-08)
(2.25563e-06 -0.010447 -0.918571)
(2.18855e-06 -0.0104471 -1.98022e-08)
(2.00726e-06 -0.0104582 -0.918803)
(1.94713e-06 -0.0104584 -1.86041e-08)
(2.17653e-05 -0.029128 -2.57116e-08)
(2.17471e-05 -0.0291288 -2.04352e-08)
(1.94607e-05 -0.0291609 -2.41213e-08)
(1.94432e-05 -0.0291617 -1.92005e-08)
(2.16422e-06 -0.0104474 -2.57417e-08)
(2.15549e-06 -0.0104477 -2.04764e-08)
(1.92497e-06 -0.0104587 -2.41407e-08)
(1.91676e-06 -0.010459 -1.92332e-08)
(2.17358e-05 -0.0291294 -7.68569e-09)
(2.17359e-05 -0.0291294 8.1797e-09)
(1.94324e-05 -0.0291623 -7.22954e-09)
(1.94325e-05 -0.0291623 7.66009e-09)
(2.15112e-06 -0.0104479 -7.60656e-09)
(2.15116e-06 -0.0104479 8.09176e-09)
(1.91262e-06 -0.0104591 -7.1637e-09)
(1.91266e-06 -0.0104591 7.56997e-09)
(2.17474e-05 -0.0291288 2.08789e-08)
(2.17659e-05 -0.029128 2.60733e-08)
(1.94436e-05 -0.0291617 1.95871e-08)
(1.94613e-05 -0.0291609 2.44398e-08)
(2.15561e-06 -0.0104477 2.09113e-08)
(2.16442e-06 -0.0104474 2.60905e-08)
(1.91689e-06 -0.010459 1.95982e-08)
(1.92517e-06 -0.0104587 2.44409e-08)
(2.17893e-05 -0.0291271 2.62261e-08)
(2.18216e-05 -0.0291266 0.930865)
(1.94835e-05 -0.02916 2.43832e-08)
(1.95131e-05 -0.0291595 0.931103)
(2.18883e-06 -0.0104471 2.00527e-08)
(2.25583e-06 -0.010447 0.918571)
(1.94739e-06 -0.0104584 1.88367e-08)
(2.00768e-06 -0.0104583 0.918803)
(2.706e-05 -0.0290503 -0.929931)
(2.70216e-05 -0.0290508 -2.95834e-08)
(2.43322e-05 -0.0290903 -0.930175)
(2.42971e-05 -0.0290908 -2.77702e-08)
(2.8238e-06 -0.0104207 -0.917661)
(2.74178e-06 -0.0104209 -2.20669e-08)
(2.52702e-06 -0.0104345 -0.917899)
(2.45276e-06 -0.0104346 -2.09499e-08)
(2.69959e-05 -0.0290517 -2.89042e-08)
(2.69761e-05 -0.0290525 -2.29277e-08)
(2.42727e-05 -0.0290916 -2.73038e-08)
(2.42537e-05 -0.0290925 -2.16797e-08)
(2.71264e-06 -0.0104212 -2.89612e-08)
(2.70283e-06 -0.0104214 -2.29964e-08)
(2.42612e-06 -0.0104349 -2.7343e-08)
(2.41686e-06 -0.0104352 -2.17305e-08)
(2.69638e-05 -0.029053 -8.63027e-09)
(2.69638e-05 -0.029053 9.17597e-09)
(2.42418e-05 -0.029093 -8.15618e-09)
(2.42419e-05 -0.029093 8.67953e-09)
(2.69799e-06 -0.0104216 -8.52992e-09)
(2.69799e-06 -0.0104216 9.09173e-09)
(2.41225e-06 -0.0104354 -8.06389e-09)
(2.41227e-06 -0.0104354 8.59517e-09)
(2.69762e-05 -0.0290525 2.34119e-08)
(2.6996e-05 -0.0290517 2.92903e-08)
(2.42538e-05 -0.0290925 2.21469e-08)
(2.4273e-05 -0.0290916 2.76805e-08)
(2.70283e-06 -0.0104214 2.34972e-08)
(2.71264e-06 -0.0104212 2.93547e-08)
(2.41692e-06 -0.0104352 2.22051e-08)
(2.42623e-06 -0.0104349 2.77209e-08)
(2.70217e-05 -0.0290508 2.98773e-08)
(2.70602e-05 -0.0290503 0.929931)
(2.42975e-05 -0.0290908 2.80335e-08)
(2.43327e-05 -0.0290903 0.930175)
(2.74182e-06 -0.0104209 2.23174e-08)
(2.82402e-06 -0.0104207 0.917661)
(2.45294e-06 -0.0104347 2.11965e-08)
(2.52724e-06 -0.0104345 0.917899)
(3.32441e-05 -0.0289583 -0.928974)
(3.31986e-05 -0.0289588 -3.33453e-08)
(3.00261e-05 -0.0290064 -0.929238)
(2.99842e-05 -0.0290069 -3.14355e-08)
(3.50183e-06 -0.0103889 -0.916728)
(3.40192e-06 -0.0103891 -2.41515e-08)
(3.14813e-06 -0.0104056 -0.916985)
(3.05747e-06 -0.0104057 -2.31191e-08)
(3.31702e-05 -0.0289596 -3.20306e-08)
(3.31491e-05 -0.0289605 -2.53296e-08)
(2.99572e-05 -0.0290078 -3.04654e-08)
(2.99368e-05 -0.0290086 -2.41331e-08)
(3.36724e-06 -0.0103893 -3.21423e-08)
(3.35635e-06 -0.0103896 -2.54679e-08)
(3.02566e-06 -0.010406 -3.05451e-08)
(3.0153e-06 -0.0104063 -2.42282e-08)
(3.31359e-05 -0.028961 -9.53215e-09)
(3.3136e-05 -0.028961 1.01606e-08)
(2.9924e-05 -0.0290091 -9.08e-09)
(2.9924e-05 -0.0290091 9.67557e-09)
(3.35111e-06 -0.0103898 -9.43544e-09)
(3.35111e-06 -0.0103898 1.00586e-08)
(3.01024e-06 -0.0104064 -8.9768e-09)
(3.01023e-06 -0.0104064 9.5838e-09)
(3.31492e-05 -0.0289605 2.58904e-08)
(3.31703e-05 -0.0289597 3.24753e-08)
(2.99368e-05 -0.0290086 2.46617e-08)
(2.99573e-05 -0.0290078 3.08833e-08)
(3.35636e-06 -0.0103896 2.60253e-08)
(3.36725e-06 -0.0103893 3.25801e-08)
(3.01528e-06 -0.0104063 2.47678e-08)
(3.02564e-06 -0.010406 3.09653e-08)
(3.31987e-05 -0.0289588 3.36413e-08)
(3.32443e-05 -0.0289583 0.928974)
(2.99843e-05 -0.0290069 3.17204e-08)
(3.00261e-05 -0.0290064 0.929238)
(3.40196e-06 -0.0103891 2.44316e-08)
(3.50189e-06 -0.0103889 0.916728)
(3.05749e-06 -0.0104057 2.33725e-08)
(3.14822e-06 -0.0104056 0.916985)
(4.05179e-05 -0.0288484 -0.927982)
(4.04642e-05 -0.0288488 -3.73358e-08)
(3.67363e-05 -0.0289057 -0.928242)
(3.66869e-05 -0.0289062 -3.52777e-08)
(4.30589e-06 -0.0103507 -0.915762)
(4.1854e-06 -0.0103509 -2.61841e-08)
(3.88684e-06 -0.0103707 -0.916015)
(3.77705e-06 -0.0103708 -2.51491e-08)
(4.0433e-05 -0.0288496 -3.52232e-08)
(4.04107e-05 -0.0288505 -2.77311e-08)
(3.66572e-05 -0.028907 -3.35962e-08)
(3.66355e-05 -0.0289079 -2.65156e-08)
(4.14428e-06 -0.0103511 -3.53911e-08)
(4.1323e-06 -0.0103514 -2.79661e-08)
(3.73926e-06 -0.0103711 -3.37393e-08)
(3.72785e-06 -0.0103713 -2.67024e-08)
(4.03967e-05 -0.028851 -1.04479e-08)
(4.03967e-05 -0.028851 1.11143e-08)
(3.66219e-05 -0.0289084 -9.98508e-09)
(3.66219e-05 -0.0289084 1.06304e-08)
(4.12671e-06 -0.0103516 -1.03612e-08)
(4.12675e-06 -0.0103516 1.09963e-08)
(3.72244e-06 -0.0103715 -9.8962e-09)
(3.72246e-06 -0.0103715 1.05181e-08)
(4.04108e-05 -0.0288505 2.83271e-08)
(4.04331e-05 -0.0288497 3.56945e-08)
(3.66356e-05 -0.0289079 2.70937e-08)
(3.66573e-05 -0.028907 3.40555e-08)
(4.13239e-06 -0.0103514 2.85377e-08)
(4.14439e-06 -0.0103511 3.58463e-08)
(3.7279e-06 -0.0103714 2.72622e-08)
(3.73933e-06 -0.0103711 3.41845e-08)
(4.04644e-05 -0.0288488 3.76501e-08)
(4.05181e-05 -0.0288484 0.927982)
(3.6687e-05 -0.0289062 3.55801e-08)
(3.67364e-05 -0.0289057 0.928242)
(4.18554e-06 -0.0103509 2.64957e-08)
(4.30606e-06 -0.0103507 0.915762)
(3.77712e-06 -0.0103708 2.54431e-08)
(3.88697e-06 -0.0103707 0.916015)
(4.90416e-05 -0.0287178 -0.926955)
(4.89786e-05 -0.0287183 -4.17081e-08)
(4.46145e-05 -0.0287858 -0.927237)
(4.45565e-05 -0.0287863 -3.94634e-08)
(5.25539e-06 -0.0103052 -0.91476)
(5.11095e-06 -0.0103053 -2.83011e-08)
(4.76103e-06 -0.0103289 -0.915036)
(4.62905e-06 -0.0103291 -2.72279e-08)
(4.89442e-05 -0.0287191 -3.85672e-08)
(4.89205e-05 -0.0287199 -3.02172e-08)
(4.45237e-05 -0.0287871 -3.6871e-08)
(4.45007e-05 -0.0287879 -2.89555e-08)
(5.06232e-06 -0.0103056 -3.88068e-08)
(5.0492e-06 -0.0103058 -3.05632e-08)
(4.58431e-06 -0.0103293 -3.70727e-08)
(4.57178e-06 -0.0103296 -2.92481e-08)
(4.89056e-05 -0.0287203 -1.14044e-08)
(4.89056e-05 -0.0287203 1.21043e-08)
(4.44862e-05 -0.0287884 -1.09182e-08)
(4.44863e-05 -0.0287884 1.16021e-08)
(5.04323e-06 -0.010306 -1.1308e-08)
(5.04326e-06 -0.010306 1.19966e-08)
(4.56601e-06 -0.0103297 -1.08312e-08)
(4.56604e-06 -0.0103297 1.14861e-08)
(4.89206e-05 -0.0287199 3.08522e-08)
(4.89444e-05 -0.0287191 3.908e-08)
(4.45007e-05 -0.0287879 2.95727e-08)
(4.45238e-05 -0.0287871 3.73654e-08)
(5.04926e-06 -0.0103058 3.1186e-08)
(5.06244e-06 -0.0103056 3.93058e-08)
(4.57186e-06 -0.0103296 2.98408e-08)
(4.58443e-06 -0.0103293 3.75498e-08)
(4.8979e-05 -0.0287183 4.20282e-08)
(4.90419e-05 -0.0287178 0.926955)
(4.45567e-05 -0.0287863 3.97875e-08)
(4.46149e-05 -0.0287858 0.927237)
(5.11112e-06 -0.0103053 2.86324e-08)
(5.25552e-06 -0.0103052 0.91476)
(4.62919e-06 -0.0103291 2.7553e-08)
(4.76125e-06 -0.0103289 0.915036)
(5.89801e-05 -0.0285639 -0.925887)
(5.89069e-05 -0.0285644 -4.62846e-08)
(5.38246e-05 -0.028644 -0.926167)
(5.37567e-05 -0.0286444 -4.39424e-08)
(6.37049e-06 -0.0102512 -0.91372)
(6.19865e-06 -0.0102514 -3.03579e-08)
(5.79062e-06 -0.0102793 -0.913993)
(5.63299e-06 -0.0102795 -2.93248e-08)
(5.88691e-05 -0.0285651 -4.19567e-08)
(5.8844e-05 -0.0285659 -3.27677e-08)
(5.37207e-05 -0.0286452 -4.0249e-08)
(5.36963e-05 -0.028646 -3.14774e-08)
(6.14152e-06 -0.0102516 -4.23083e-08)
(6.12714e-06 -0.0102519 -3.32406e-08)
(5.58024e-06 -0.0102797 -4.0538e-08)
(5.5665e-06 -0.01028 -3.18834e-08)
(5.88282e-05 -0.0285664 -1.24129e-08)
(5.88283e-05 -0.0285664 1.3067e-08)
(5.36809e-05 -0.0286464 -1.18981e-08)
(5.3681e-05 -0.0286464 1.25882e-08)
(6.12081e-06 -0.010252 -1.23102e-08)
(6.12084e-06 -0.010252 1.29751e-08)
(5.56035e-06 -0.0102801 -1.1798e-08)
(5.56039e-06 -0.0102801 1.24872e-08)
(5.88442e-05 -0.0285659 3.33649e-08)
(5.88694e-05 -0.0285651 4.24506e-08)
(5.36965e-05 -0.028646 3.21043e-08)
(5.3721e-05 -0.0286452 4.07567e-08)
(6.12721e-06 -0.0102519 3.38484e-08)
(6.14163e-06 -0.0102516 4.28102e-08)
(5.56659e-06 -0.01028 3.25089e-08)
(5.58039e-06 -0.0102797 4.10432e-08)
(5.89073e-05 -0.0285644 4.66178e-08)
(5.89806e-05 -0.0285639 0.925887)
(5.37572e-05 -0.0286444 4.42692e-08)
(5.38251e-05 -0.028644 0.926167)
(6.1988e-06 -0.0102514 3.06903e-08)
(6.37068e-06 -0.0102513 0.91372)
(5.6332e-06 -0.0102795 2.96568e-08)
(5.79084e-06 -0.0102793 0.913993)
(7.05064e-05 -0.0283835 -0.924801)
(7.04212e-05 -0.028384 -5.11433e-08)
(6.45354e-05 -0.0284772 -0.925076)
(6.44563e-05 -0.0284777 -4.86519e-08)
(7.6723e-06 -0.0101878 -0.912661)
(7.46869e-06 -0.0101879 -3.22806e-08)
(6.9965e-06 -0.0102208 -0.91293)
(6.80924e-06 -0.0102209 -3.13074e-08)
(7.03798e-05 -0.0283847 -4.53821e-08)
(7.03534e-05 -0.0283854 -3.53603e-08)
(6.44168e-05 -0.0284784 -4.36477e-08)
(6.43911e-05 -0.0284792 -3.40484e-08)
(7.40211e-06 -0.0101882 -4.58939e-08)
(7.38638e-06 -0.0101884 -3.5987e-08)
(6.74754e-06 -0.0102212 -4.4078e-08)
(6.73252e-06 -0.0102214 -3.45963e-08)
(7.03367e-05 -0.0283859 -1.34338e-08)
(7.03368e-05 -0.0283859 1.40584e-08)
(6.43749e-05 -0.0284796 -1.29223e-08)
(6.4375e-05 -0.0284796 1.35469e-08)
(7.37969e-06 -0.0101885 -1.3342e-08)
(7.37972e-06 -0.0101885 1.39677e-08)
(6.72602e-06 -0.0102215 -1.28232e-08)
(6.72605e-06 -0.0102215 1.34592e-08)
(7.03537e-05 -0.0283854 3.59327e-08)
(7.03802e-05 -0.0283847 4.58713e-08)
(6.43913e-05 -0.0284792 3.46219e-08)
(6.44172e-05 -0.0284784 4.41336e-08)
(7.38645e-06 -0.0101884 3.65644e-08)
(7.40221e-06 -0.0101882 4.63855e-08)
(6.73259e-06 -0.0102214 3.51831e-08)
(6.74764e-06 -0.0102212 4.45728e-08)
(7.04217e-05 -0.028384 5.14997e-08)
(7.0507e-05 -0.0283836 0.924801)
(6.44568e-05 -0.0284777 4.90042e-08)
(6.45358e-05 -0.0284772 0.925076)
(7.46882e-06 -0.0101879 3.26459e-08)
(7.67236e-06 -0.0101878 0.912661)
(6.80938e-06 -0.0102209 3.16819e-08)
(6.99647e-06 -0.0102208 0.91293)
(8.37903e-05 -0.0281734 -0.923643)
(8.36915e-05 -0.0281738 -5.62997e-08)
(7.69205e-05 -0.0282824 -0.923944)
(7.68288e-05 -0.0282828 -5.36469e-08)
(9.18028e-06 -0.0101135 -0.911532)
(8.94054e-06 -0.0101137 -3.41196e-08)
(8.39889e-06 -0.0101521 -0.911826)
(8.17783e-06 -0.0101522 -3.319e-08)
(8.36459e-05 -0.0281745 -4.88857e-08)
(8.3618e-05 -0.0281752 -3.79998e-08)
(7.67854e-05 -0.0282835 -4.71185e-08)
(7.67583e-05 -0.0282842 -3.66723e-08)
(8.86343e-06 -0.0101139 -4.95908e-08)
(8.84614e-06 -0.0101141 -3.87914e-08)
(8.10613e-06 -0.0101524 -4.77215e-08)
(8.08964e-06 -0.0101527 -3.7376e-08)
(8.36004e-05 -0.0281756 -1.4435e-08)
(8.36005e-05 -0.0281756 1.5143e-08)
(7.67411e-05 -0.0282847 -1.39377e-08)
(7.67412e-05 -0.0282847 1.45852e-08)
(8.83904e-06 -0.0101143 -1.43526e-08)
(8.83906e-06 -0.0101143 1.50551e-08)
(8.08274e-06 -0.0101528 -1.38466e-08)
(8.08275e-06 -0.0101528 1.44985e-08)
(8.36184e-05 -0.0281752 3.86393e-08)
(8.36464e-05 -0.0281745 4.94136e-08)
(7.67585e-05 -0.0282842 3.72626e-08)
(7.67858e-05 -0.0282835 4.76167e-08)
(8.84619e-06 -0.0101141 3.94262e-08)
(8.86354e-06 -0.0101139 5.01027e-08)
(8.08967e-06 -0.0101527 3.79699e-08)
(8.1062e-06 -0.0101524 4.82113e-08)
(8.36921e-05 -0.0281738 5.66954e-08)
(8.37909e-05 -0.0281734 0.923643)
(7.68294e-05 -0.0282828 5.40268e-08)
(7.69212e-05 -0.0282824 0.923944)
(8.94077e-06 -0.0101137 3.44753e-08)
(9.18062e-06 -0.0101135 0.911532)
(8.17799e-06 -0.0101522 3.35428e-08)
(8.39911e-06 -0.0101521 0.911826)
(9.89988e-05 -0.0279299 -0.922461)
(9.88846e-05 -0.0279302 -6.18735e-08)
(9.11453e-05 -0.028056 -0.922769)
(9.10392e-05 -0.0280564 -5.90311e-08)
(1.09158e-05 -0.0100272 -0.910381)
(1.06345e-05 -0.0100273 -3.58699e-08)
(1.00178e-05 -0.010072 -0.910681)
(9.75801e-06 -0.0100721 -3.50058e-08)
(9.88345e-05 -0.0279309 -5.23927e-08)
(9.8805e-05 -0.0279316 -4.0641e-08)
(9.09914e-05 -0.0280571 -5.06233e-08)
(9.09627e-05 -0.0280578 -3.93039e-08)
(1.05457e-05 -0.0100275 -5.33311e-08)
(1.05266e-05 -0.0100277 -4.16176e-08)
(9.67517e-06 -0.0100723 -5.14395e-08)
(9.65702e-06 -0.0100725 -4.01845e-08)
(9.87863e-05 -0.027932 -1.54152e-08)
(9.87865e-05 -0.027932 1.62743e-08)
(9.09445e-05 -0.0280582 -1.49157e-08)
(9.09447e-05 -0.0280582 1.5707e-08)
(1.05191e-05 -0.0100279 -1.53486e-08)
(1.05191e-05 -0.0100279 1.61874e-08)
(9.6497e-06 -0.0100727 -1.48386e-08)
(9.64972e-06 -0.0100727 1.56218e-08)
(9.88055e-05 -0.0279316 4.13964e-08)
(9.88352e-05 -0.0279309 5.29868e-08)
(9.09631e-05 -0.0280578 4.00079e-08)
(9.09919e-05 -0.0280571 5.11885e-08)
(1.05267e-05 -0.0100277 4.23582e-08)
(1.05459e-05 -0.0100275 5.39033e-08)
(9.65708e-06 -0.0100725 4.08817e-08)
(9.67529e-06 -0.0100723 5.19884e-08)
(9.88855e-05 -0.0279303 6.22185e-08)
(9.89995e-05 -0.0279299 0.922461)
(9.10398e-05 -0.0280564 5.94008e-08)
(9.11459e-05 -0.028056 0.922769)
(1.06349e-05 -0.0100273 3.62345e-08)
(1.09157e-05 -0.0100272 0.910381)
(9.75823e-06 -0.0100721 3.53663e-08)
(1.00179e-05 -0.010072 0.910681)
(0.000116293 -0.0276493 -0.921239)
(0.000116162 -0.0276497 -6.75426e-08)
(0.000107378 -0.0277944 -0.921557)
(0.000107256 -0.0277948 -6.46558e-08)
(1.28975e-05 -0.00992737 -0.909189)
(1.25701e-05 -0.0099275 -3.73321e-08)
(1.1874e-05 -0.00997905 -0.9095)
(1.15704e-05 -0.00997918 -3.66063e-08)
(0.000116107 -0.0276503 -5.59384e-08)
(0.000116076 -0.027651 -4.3386e-08)
(0.000107203 -0.0277955 -5.4141e-08)
(0.000107173 -0.0277961 -4.19825e-08)
(1.24682e-05 -0.0099277 -5.71497e-08)
(1.24471e-05 -0.00992789 -4.4556e-08)
(1.14751e-05 -0.00997938 -5.52092e-08)
(1.14551e-05 -0.00997958 -4.30547e-08)
(0.000116056 -0.0276514 -1.64898e-08)
(0.000116056 -0.0276514 1.73596e-08)
(0.000107153 -0.0277965 -1.59295e-08)
(0.000107154 -0.0277965 1.68213e-08)
(1.24391e-05 -0.00992801 -1.64296e-08)
(1.24391e-05 -0.00992801 1.72876e-08)
(1.14473e-05 -0.00997971 -1.58699e-08)
(1.14474e-05 -0.00997971 1.67363e-08)
(0.000116076 -0.027651 4.41545e-08)
(0.000116108 -0.0276503 5.6552e-08)
(0.000107173 -0.0277961 4.27611e-08)
(0.000107204 -0.0277955 5.47489e-08)
(1.24472e-05 -0.00992789 4.53168e-08)
(1.24683e-05 -0.0099277 5.77453e-08)
(1.14552e-05 -0.00997958 4.38161e-08)
(1.14753e-05 -0.00997938 5.57946e-08)
(0.000116163 -0.0276497 6.79092e-08)
(0.000116294 -0.0276493 0.921239)
(0.000107257 -0.0277948 6.50154e-08)
(0.000107379 -0.0277944 0.921557)
(1.25703e-05 -0.0099275 3.77031e-08)
(1.28976e-05 -0.00992737 0.909189)
(1.15707e-05 -0.00997918 3.69893e-08)
(1.1874e-05 -0.00997905 0.9095)
(0.000135815 -0.027328 -0.919973)
(0.000135666 -0.0273283 -7.34267e-08)
(0.00012577 -0.027494 -0.920304)
(0.00012563 -0.0274943 -7.04105e-08)
(1.51423e-05 -0.00981262 -0.907955)
(1.47632e-05 -0.00981274 -3.85253e-08)
(1.39852e-05 -0.00987194 -0.908278)
(1.36327e-05 -0.00987207 -3.79291e-08)
(0.000135605 -0.0273289 -5.95028e-08)
(0.000135572 -0.0273295 -4.62033e-08)
(0.000125572 -0.0274949 -5.77015e-08)
(0.00012554 -0.0274956 -4.47745e-08)
(1.4647e-05 -0.00981292 -6.10488e-08)
(1.46237e-05 -0.00981311 -4.76008e-08)
(1.35238e-05 -0.00987226 -5.90723e-08)
(1.35016e-05 -0.00987244 -4.60542e-08)
(0.000135551 -0.0273299 -1.76401e-08)
(0.000135551 -0.0273299 1.84062e-08)
(0.000125519 -0.027496 -1.70556e-08)
(0.000125519 -0.027496 1.78769e-08)
(1.46151e-05 -0.00981322 -1.75964e-08)
(1.46151e-05 -0.00981322 1.83554e-08)
(1.34933e-05 -0.00987256 -1.7003e-08)
(1.34934e-05 -0.00987256 1.7814e-08)
(0.000135572 -0.0273295 4.69218e-08)
(0.000135606 -0.0273289 6.01401e-08)
(0.00012554 -0.0274956 4.55211e-08)
(0.000125573 -0.0274949 5.83254e-08)
(1.46237e-05 -0.00981311 4.83135e-08)
(1.46471e-05 -0.00981292 6.16633e-08)
(1.35017e-05 -0.00987244 4.67926e-08)
(1.35239e-05 -0.00987226 5.96736e-08)
(0.000135667 -0.0273283 7.38842e-08)
(0.000135816 -0.027328 0.919973)
(0.000125631 -0.0274943 7.08319e-08)
(0.000125771 -0.027494 0.920304)
(1.47634e-05 -0.00981274 3.89752e-08)
(1.51424e-05 -0.00981262 0.907955)
(1.3633e-05 -0.00987207 3.83312e-08)
(1.39855e-05 -0.00987194 0.908278)
(0.000157681 -0.0269619 -0.918653)
(0.00015751 -0.0269623 -7.96959e-08)
(0.000146451 -0.0271507 -0.918988)
(0.000146291 -0.0271511 -7.64514e-08)
(1.76634e-05 -0.00968151 -0.906669)
(1.72271e-05 -0.00968162 -3.96258e-08)
(1.63665e-05 -0.00974919 -0.906996)
(1.59596e-05 -0.00974931 -3.90537e-08)
(0.000157444 -0.0269628 -6.31532e-08)
(0.000157409 -0.0269634 -4.90611e-08)
(0.000146228 -0.0271516 -6.12847e-08)
(0.000146194 -0.0271522 -4.76127e-08)
(1.70952e-05 -0.00968179 -6.50814e-08)
(1.70695e-05 -0.00968196 -5.07101e-08)
(1.58357e-05 -0.00974948 -6.30248e-08)
(1.58113e-05 -0.00974966 -4.91366e-08)
(0.000157386 -0.0269638 -1.87643e-08)
(0.000157386 -0.0269638 1.95305e-08)
(0.000146172 -0.0271526 -1.82078e-08)
(0.000146172 -0.0271526 1.8943e-08)
(1.70604e-05 -0.00968207 -1.87473e-08)
(1.70605e-05 -0.00968207 1.94928e-08)
(1.58024e-05 -0.00974977 -1.81733e-08)
(1.58024e-05 -0.00974977 1.89076e-08)
(0.000157409 -0.0269634 4.97704e-08)
(0.000157445 -0.0269628 6.37687e-08)
(0.000146194 -0.0271522 4.83124e-08)
(0.000146228 -0.0271516 6.19208e-08)
(1.70697e-05 -0.00968197 5.14019e-08)
(1.70954e-05 -0.0096818 6.56687e-08)
(1.58113e-05 -0.00974966 4.98329e-08)
(1.58358e-05 -0.00974948 6.36411e-08)
(0.000157511 -0.0269623 8.01816e-08)
(0.000157682 -0.0269619 0.918653)
(0.000146292 -0.0271511 7.69339e-08)
(0.000146452 -0.0271507 0.918988)
(1.72275e-05 -0.00968163 4.00861e-08)
(1.76639e-05 -0.00968151 0.906669)
(1.59597e-05 -0.00974931 3.95274e-08)
(1.63666e-05 -0.00974919 0.906996)
(0.000181979 -0.0265474 -0.917294)
(0.000181787 -0.0265477 -8.65609e-08)
(0.000169524 -0.0267609 -0.917647)
(0.000169343 -0.0267612 -8.30386e-08)
(2.04718e-05 -0.00953258 -0.905344)
(1.99726e-05 -0.00953269 -4.08415e-08)
(1.90303e-05 -0.00960934 -0.905688)
(1.85633e-05 -0.00960946 -4.02223e-08)
(0.000181714 -0.0265482 -6.6933e-08)
(0.000181676 -0.0265488 -5.19871e-08)
(0.000169274 -0.0267618 -6.50252e-08)
(0.000169237 -0.0267623 -5.05073e-08)
(1.98236e-05 -0.00953285 -6.92613e-08)
(1.97953e-05 -0.009533 -5.38763e-08)
(1.8423e-05 -0.00960962 -6.71361e-08)
(1.8396e-05 -0.00960978 -5.22662e-08)
(0.000181652 -0.0265491 -1.98756e-08)
(0.000181653 -0.0265491 2.07348e-08)
(0.000169214 -0.0267627 -1.93122e-08)
(0.000169214 -0.0267627 2.01232e-08)
(1.97855e-05 -0.0095331 -1.98652e-08)
(1.97855e-05 -0.0095331 2.07244e-08)
(1.83865e-05 -0.00960989 -1.92981e-08)
(1.83866e-05 -0.00960989 2.00902e-08)
(0.000181677 -0.0265488 5.27263e-08)
(0.000181714 -0.0265482 6.75043e-08)
(0.000169238 -0.0267623 5.1223e-08)
(0.000169274 -0.0267618 6.5604e-08)
(1.97953e-05 -0.009533 5.46232e-08)
(1.98237e-05 -0.00953285 6.98335e-08)
(1.83961e-05 -0.00960978 5.29687e-08)
(1.84232e-05 -0.00960962 6.76916e-08)
(0.000181788 -0.0265477 8.6986e-08)
(0.00018198 -0.0265474 0.917294)
(0.000169344 -0.0267612 8.34829e-08)
(0.000169526 -0.0267609 0.917647)
(1.99728e-05 -0.00953269 4.1227e-08)
(2.04721e-05 -0.00953258 0.905344)
(1.85637e-05 -0.00960946 4.06005e-08)