/*--------------------------------*- C++ -*----------------------------------*\
  =========                 |
  \\      /  F ield         | OpenFOAM: The Open Source CFD Toolbox
   \\    /   O peration     | Website:  https://openfoam.org
    \\  /    A nd           | Version:  9
     \\/     M anipulation  |
\*---------------------------------------------------------------------------*/
FoamFile
{
    format      ascii;
    class       volScalarField;
    location    "1.7";
    object      k;
}
// * * * * * * * * * * * * * * * * * * * * * * * * * * * * * * * * * * * * * //

dimensions      [0 2 -2 0 0 0 0];

internalField   nonuniform List<scalar> 
36360
(
0.0594188
0.0473293
0.0213588
0.0190997
0.011852
0.00842748
0.00469719
0.00404473
0.0132496
0.00337738
0.00459277
0.00274041
0.00334734
0.00220988
0.0029602
0.00298348
0.00195011
0.00195
0.00279839
0.00279838
0.00218401
0.00218403
0.00299228
0.00299227
0.00337595
0.013246
0.00274021
0.00459184
0.00220985
0.00334685
0.00298345
0.0029601
0.047333
0.0594364
0.0190984
0.0213648
0.00842793
0.0118554
0.00404461
0.0046976
0.110678
0.0899225
0.0892103
0.07148
0.0336987
0.0244197
0.0240692
0.0170536
0.0421861
0.0158484
0.028898
0.00754166
0.0106427
0.00320517
0.0058753
0.00228176
0.00374178
0.00373778
0.00216316
0.00216212
0.00150429
0.00150384
0.00170572
0.00170566
0.0158411
0.0421884
0.00753711
0.0288964
0.00320332
0.0106421
0.00228108
0.00587427
0.0899411
0.110717
0.0714909
0.0892389
0.0244253
0.0337123
0.0170561
0.0240779
0.136428
0.112751
0.125803
0.103249
0.045281
0.0340616
0.040546
0.0300528
0.0601111
0.0290681
0.0524999
0.0232389
0.0178446
0.00721695
0.014756
0.00520971
0.0120804
0.0120742
0.00753465
0.00752752
0.00225914
0.00225699
0.0017043
0.00170322
0.0290646
0.0601223
0.0232329
0.0525065
0.00721344
0.0178467
0.00520657
0.0147566
0.112785
0.136488
0.103275
0.125853
0.0340733
0.0453039
0.0300615
0.0405643
0.148827
0.123956
0.14381
0.119412
0.0506623
0.0386864
0.0485106
0.0368322
0.0692873
0.0364433
0.0655476
0.0333988
0.0214914
0.00986426
0.0200245
0.00877382
0.018717
0.0187141
0.0158986
0.0158941
0.00365009
0.00364709
0.00301392
0.00301119
0.0364456
0.0693073
0.0333983
0.0655633
0.00986128
0.0214963
0.00877046
0.020028
0.124003
0.148906
0.119453
0.14388
0.0387034
0.0506934
0.0368467
0.0485378
0.154299
0.12892
0.152173
0.126993
0.0529432
0.0406466
0.0520698
0.0398988
0.073384
0.0397986
0.071798
0.0385039
0.0230395
0.0110217
0.0224514
0.0105854
0.0218614
0.0218606
0.0206542
0.0206526
0.00440092
0.00439782
0.0041122
0.00410912
0.0398051
0.0734104
0.0385086
0.0718216
0.0110194
0.0230464
0.0105828
0.0224575
0.128977
0.154393
0.127046
0.15226
0.0406675
0.0529802
0.039918
0.0521042
0.156381
0.130798
0.155629
0.130123
0.0537699
0.041346
0.0534779
0.0411022
0.0749216
0.0410317
0.0743731
0.0405994
0.0235859
0.0114126
0.0233963
0.0112812
0.0229769
0.022977
0.0225969
0.0225967
0.00466001
0.00465689
0.00457495
0.00457185
0.0410401
0.0749515
0.0406071
0.0744016
0.0114107
0.0235939
0.0112792
0.0234039
0.130862
0.156483
0.130184
0.155728
0.041369
0.0538104
0.0411244
0.053517
0.156988
0.131341
0.156811
0.131184
0.0539956
0.0415261
0.0539337
0.0414806
0.075363
0.0413703
0.0752378
0.0412795
0.0237307
0.0115054
0.0236928
0.0114847
0.0232549
0.0232552
0.0231901
0.0231903
0.00471417
0.00471103
0.00470533
0.00470221
0.0413793
0.0753942
0.0412883
0.0752686
0.0115035
0.023739
0.0114828
0.023701
0.131407
0.157095
0.13125
0.156916
0.04155
0.0540376
0.0415042
0.0539751
0.157031
0.131381
0.157062
0.131407
0.0540054
0.0415242
0.0540186
0.0415405
0.0754035
0.0414015
0.075422
0.0414167
0.0237404
0.0115085
0.0237478
0.0115154
0.0232707
0.0232709
0.02329
0.0232903
0.00471338
0.00471023
0.00471947
0.00471633
0.0414105
0.0754351
0.0414257
0.0754535
0.0115066
0.0237488
0.0115135
0.0237562
0.131448
0.157139
0.131474
0.157169
0.0415483
0.0540478
0.0415646
0.054061
0.156887
0.131264
0.156989
0.131349
0.0539508
0.0414689
0.0539902
0.0415074
0.0753246
0.0413487
0.0753863
0.0413933
0.0237126
0.0114883
0.0237346
0.0115044
0.0232217
0.0232219
0.0232638
0.0232641
0.00469813
0.00469497
0.00471023
0.00470707
0.0413576
0.0753562
0.0414023
0.0754179
0.0114864
0.023721
0.0115025
0.023743
0.131331
0.156995
0.131416
0.157097
0.0414931
0.0539933
0.0415316
0.0540327
0.156651
0.131073
0.156795
0.131191
0.0538633
0.041388
0.053918
0.0414384
0.0751882
0.0412527
0.0752772
0.0413186
0.0236639
0.0114541
0.0236966
0.0114776
0.023137
0.0231372
0.0231971
0.0231973
0.00467388
0.0046707
0.0046907
0.00468753
0.0412615
0.0752196
0.0413275
0.0753087
0.0114522
0.0236723
0.0114757
0.023705
0.13114
0.156759
0.131258
0.156903
0.0414121
0.0539057
0.0414626
0.0539605
0.15636
0.130842
0.156528
0.130978
0.0537574
0.0412934
0.0538205
0.0413498
0.0750223
0.0411339
0.0751244
0.0412108
0.0236041
0.0114123
0.023642
0.0114399
0.0230322
0.0230322
0.0231027
0.0231028
0.00464469
0.00464149
0.00466428
0.00466109
0.0411425
0.0750535
0.0412195
0.0751556
0.0114103
0.0236124
0.0114379
0.0236503
0.130909
0.156467
0.131045
0.156636
0.0413174
0.0537996
0.0413738
0.0538628
0.156025
0.130582
0.156215
0.130732
0.0536362
0.041187
0.0537069
0.0412494
0.0748347
0.0409981
0.0749473
0.0410835
0.0235355
0.0113647
0.0235777
0.0113951
0.0229129
0.0229128
0.0229912
0.0229912
0.00461173
0.00460851
0.00463343
0.00463022
0.0410065
0.0748656
0.041092
0.0749784
0.0113626
0.0235436
0.0113931
0.0235859
0.130648
0.156132
0.130799
0.156322
0.0412108
0.0536783
0.0412734
0.053749
0.155648
0.130292
0.155859
0.130457
0.0535006
0.0410695
0.0535784
0.0411374
0.0746269
0.0408466
0.0747494
0.0409397
0.0234585
0.0113114
0.0235048
0.0113447
0.0227801
0.0227799
0.0228652
0.022865
0.00457515
0.00457191
0.00459868
0.00459545
0.0408548
0.0746575
0.040948
0.0747802
0.0113093
0.0234666
0.0113426
0.0235129
0.130358
0.155754
0.130523
0.155965
0.0410932
0.0535425
0.0411612
0.0536204
0.15523
0.129974
0.155461
0.130153
0.0533505
0.0409406
0.0534355
0.0410143
0.074399
0.0406794
0.0745316
0.0407803
0.0233732
0.0112524
0.0234237
0.0112886
0.0226336
0.0226333
0.0227255
0.0227253
0.00453485
0.00453159
0.00456023
0.00455698
0.0406873
0.0744293
0.0407884
0.0745621
0.0112502
0.0233812
0.0112864
0.0234317
0.13004
0.155336
0.130219
0.155568
0.0409641
0.0533922
0.0410379
0.0534774
0.154768
0.129626
0.155022
0.12982
0.0531849
0.0407993
0.0532778
0.0408792
0.0741496
0.0404958
0.0742931
0.0406049
0.0232791
0.0111874
0.0233341
0.0112266
0.0224727
0.0224723
0.0225719
0.0225715
0.00449065
0.00448737
0.00451797
0.00451471
0.0405035
0.0741796
0.0406128
0.0743233
0.0111851
0.023287
0.0112244
0.023342
0.129691
0.154874
0.129885
0.155128
0.0408227
0.0532264
0.0409027
0.0533194
0.154261
0.129246
0.154538
0.129456
0.0530032
0.0406452
0.0531043
0.0407316
0.0738779
0.0402951
0.0740326
0.0404128
0.0231758
0.011116
0.0232354
0.0111584
0.0222968
0.0222962
0.0224035
0.022403
0.00444235
0.00443904
0.0044717
0.00446841
0.0403026
0.0739076
0.0404205
0.0740625
0.0111137
0.0231836
0.0111561
0.0232432
0.12931
0.154366
0.129521
0.154643
0.0406684
0.0530445
0.040755
0.0531457
0.153707
0.128832
0.154007
0.12906
0.0528048
0.0404771
0.0529143
0.0405706
0.0735825
0.0400767
0.0737492
0.0402033
0.0230628
0.0110379
0.0231273
0.0110837
0.0221051
0.0221043
0.0222197
0.022219
0.00438978
0.00438645
0.00442124
0.00441793
0.0400838
0.0736118
0.0402107
0.0737787
0.0110355
0.0230704
0.0110813
0.023135
0.128896
0.153812
0.129124
0.154112
0.0405001
0.0528458
0.0405938
0.0529554
0.153104
0.128384
0.153429
0.128629
0.0525885
0.0402937
0.052707
0.040395
0.0732621
0.0398396
0.0734414
0.0399756
0.0229395
0.0109528
0.0230092
0.0110021
0.0218968
0.0218959
0.0220197
0.0220188
0.00433277
0.00432942
0.00436643
0.00436309
0.0398464
0.0732911
0.0399826
0.0734706
0.0109503
0.022947
0.0109996
0.0230168
0.128448
0.153208
0.128693
0.153533
0.0403166
0.0526293
0.040418
0.0527479
0.15245
0.127899
0.1528
0.128162
0.0523537
0.0400943
0.0524815
0.0402036
0.0729157
0.0395831
0.073108
0.0397288
0.0228054
0.0108604
0.0228805
0.0109133
0.0216714
0.0216703
0.0218028
0.0218018
0.00427118
0.00426781
0.00430709
0.00430373
0.0395896
0.0729442
0.0397355
0.0731368
0.0108578
0.0228127
0.0109108
0.0228879
0.127962
0.152552
0.128225
0.152904
0.0401169
0.0523941
0.0402264
0.0525221
0.151742
0.127376
0.15212
0.127658
0.0520997
0.0398783
0.0522372
0.039996
0.0725424
0.0393066
0.0727482
0.0394623
0.0226602
0.0107604
0.0227409
0.0108171
0.0214284
0.0214271
0.0215685
0.0215673
0.00420494
0.00420154
0.00424312
0.00423974
0.0393128
0.0725705
0.0394686
0.0727765
0.0107577
0.0226674
0.0108145
0.0227481
0.127438
0.151845
0.127721
0.152222
0.0399007
0.0521399
0.0400185
0.0522775
0.150981
0.126814
0.151385
0.127116
0.0518263
0.0396465
0.0519735
0.0397717
0.0721415
0.0390098
0.0723612
0.0391756
0.0225039
0.0106527
0.0225901
0.0107133
0.0211675
0.021166
0.0213165
0.0213151
0.00413402
0.00413059
0.00417448
0.00417107
0.0390156
0.0721691
0.0391816
0.072389
0.0106499
0.0225109
0.0107105
0.0225972
0.126876
0.151082
0.127178
0.151487
0.0396687
0.0518662
0.039794
0.0520135
0.150166
0.126213
0.150597
0.126534
0.0515333
0.0393994
0.0516903
0.0395326
0.0717127
0.0386924
0.0719463
0.0388684
0.0223362
0.0105373
0.0224281
0.0106017
0.0208887
0.0208869
0.0210465
0.0210448
0.00405845
0.004055
0.00410115
0.00409771
0.0386978
0.0717398
0.038874
0.0719736
0.0105343
0.0223431
0.0105988
0.0224351
0.126274
0.150266
0.126596
0.150698
0.0394213
0.0515728
0.0395546
0.05173
0.149298
0.125574
0.149755
0.125914
0.051221
0.0391357
0.0513875
0.0392771
0.0712565
0.0383547
0.0715036
0.0385407
0.0221571
0.010414
0.0222546
0.0104823
0.0205921
0.02059
0.0207585
0.0207566
0.00397838
0.0039749
0.00402323
0.00401977
0.0383596
0.071283
0.0385458
0.0715304
0.010411
0.0221638
0.0104793
0.0222614
0.125634
0.149397
0.125975
0.149855
0.0391573
0.0512601
0.0392989
0.0514269
0.148378
0.124897
0.148861
0.125256
0.0508899
0.038856
0.0510657
0.0390052
0.0707734
0.0379973
0.0710337
0.0381929
0.0219668
0.0102832
0.0220699
0.0103552
0.0202784
0.020276
0.0204531
0.020451
0.00389402
0.00389051
0.0039409
0.0039374
0.0380018
0.0707994
0.0381977
0.07106
0.0102801
0.0219733
0.0103521
0.0220765
0.124957
0.148477
0.125316
0.14896
0.0388773
0.0509287
0.0390267
0.0511047
0.147411
0.124185
0.147917
0.124561
0.0505411
0.0385607
0.0507256
0.0387177
0.0702648
0.0376213
0.0705376
0.0378259
0.0217657
0.0101452
0.0218741
0.0102206
0.0199485
0.0199459
0.020131
0.0201286
0.0038057
0.00380217
0.00385442
0.00385091
0.0376253
0.0702902
0.0378302
0.0705633
0.0101419
0.021772
0.0102174
0.0218805
0.124244
0.147508
0.12462
0.148015
0.0385818
0.0505794
0.0387389
0.0507641
0.1464
0.123441
0.146927
0.123832
0.050176
0.0382503
0.0503684
0.0384147
0.0697329
0.037228
0.0700169
0.0374409
0.0215545
0.0100004
0.0216678
0.0100791
0.0196038
0.0196009
0.0197934
0.0197906
0.00371387
0.00371031
0.0037642
0.00376066
0.0372315
0.0697577
0.0374447
0.070042
0.00999693
0.0215606
0.0100757
0.021674
0.123499
0.146497
0.12389
0.147024
0.038271
0.0502139
0.0384356
0.0504065
0.145351
0.12267
0.145896
0.123074
0.049796
0.037927
0.0499956
0.0380974
0.0691802
0.0368193
0.0694742
0.0370396
0.0213342
0.0098494
0.0214519
0.00993104
0.019246
0.0192427
0.0194417
0.0194386
0.00361903
0.00361545
0.0036707
0.00366713
0.0368223
0.0692043
0.0370428
0.0694987
0.00984583
0.0213401
0.00992754
0.0214579
0.122726
0.145446
0.123131
0.145992
0.0379474
0.0498335
0.038118
0.0500333
0.144267
0.121873
0.144829
0.122289
0.0494032
0.037593
0.0496089
0.0377685
0.0686089
0.0363973
0.0689118
0.0366238
0.0211058
0.00969298
0.0212273
0.00977719
0.018877
0.0188734
0.0190778
0.0190745
0.00352182
0.00351822
0.00357449
0.0035709
0.0363997
0.0686325
0.0366266
0.0689357
0.00968927
0.0211114
0.00977355
0.0212331
0.121929
0.144361
0.122346
0.144923
0.0376131
0.0494402
0.0377888
0.0496462
0.143156
0.121055
0.14373
0.121481
0.0489998
0.0372503
0.0492105
0.0374298
0.0680221
0.035964
0.0683323
0.0361957
0.0208703
0.009532
0.0209952
0.0096183
0.0184993
0.0184954
0.018704
0.0187002
0.00342295
0.00341934
0.00347625
0.00347264
0.0359659
0.0680449
0.0361979
0.0683555
0.00952815
0.0208757
0.00961453
0.0210007
0.12111
0.143249
0.121537
0.143824
0.03727
0.0490363
0.0374497
0.0492472
0.142024
0.120219
0.142608
0.120654
0.048588
0.0369019
0.0488025
0.0370838
0.0674225
0.0355222
0.0677386
0.0357577
0.0206292
0.00936754
0.0207567
0.00945537
0.0181156
0.0181114
0.0183227
0.0183186
0.00332328
0.00331965
0.00337676
0.00337314
0.0355235
0.0674447
0.0357594
0.0677612
0.00936356
0.0206344
0.00945146
0.0207619
0.120274
0.142116
0.120709
0.1427
0.0369213
0.0486241
0.0371033
0.0488388
0.140876
0.119369
0.141468
0.119811
0.0481707
0.0365509
0.0483876
0.0367337
0.0668122
0.0350745
0.0671334
0.0353124
0.0203842
0.00920095
0.0205133
0.00928959
0.0177294
0.0177248
0.0179371
0.0179327
0.00322369
0.00322005
0.00327691
0.00327328
0.0350753
0.0668338
0.0353135
0.0671553
0.00919684
0.0203891
0.00928556
0.0205184
0.119423
0.140967
0.119865
0.141559
0.0365699
0.0482063
0.0367529
0.0484234
0.13972
0.118501
0.140315
0.118952
0.0477513
0.0362051
0.0479688
0.0363839
0.0661937
0.0346247
0.0665184
0.034863
0.0201373
0.00903374
0.020267
0.00912245
0.0173441
0.0173392
0.0175507
0.0175459
0.00312508
0.00312144
0.0031776
0.00317396
0.034625
0.0662146
0.0348636
0.0665397
0.00902951
0.020142
0.00911828
0.0202719
0.118554
0.139809
0.119005
0.140405
0.0362236
0.0477864
0.0364026
0.0480041
0.13856
0.117621
0.139156
0.118076
0.0473315
0.0358607
0.0475491
0.03604
0.0655718
0.0341757
0.0658977
0.0344133
0.0198898
0.00886704
0.0200197
0.00895533
0.0169624
0.0169571
0.0171667
0.0171617
0.00302816
0.00302452
0.00307966
0.00307602
0.0341754
0.065592
0.0344134
0.0659183
0.00886268
0.0198942
0.00895104
0.0200243
0.117672
0.138648
0.118128
0.139245
0.0358788
0.0473661
0.0360583
0.047584
0.137384
0.116726
0.137991
0.117191
0.0469072
0.0355124
0.0471281
0.0356944
0.0649404
0.0337239
0.0652729
0.0339638
0.0196403
0.00870075
0.0197716
0.0087889
0.0165836
0.016578
0.0167866
0.0167812
0.00293323
0.0029296
0.00298363
0.00298
0.0337231
0.0649598
0.0339633
0.0652927
0.00869628
0.0196445
0.0087845
0.019776
0.116777
0.13747
0.117243
0.138078
0.0355301
0.0469412
0.0357124
0.0471624
0.136143
0.115775
0.136792
0.116276
0.0464616
0.0351471
0.0466964
0.0353401
0.0642698
0.0332516
0.0646274
0.0335052
0.019381
0.00853155
0.0195188
0.00862185
0.0161982
0.0161923
0.0164064
0.0164007
0.00283939
0.00283577
0.00288939
0.00288577
0.0332502
0.0642885
0.0335042
0.0646465
0.00852698
0.019385
0.00861733
0.0195229
0.115825
0.136228
0.116326
0.136878
0.0351643
0.0464949
0.0353576
0.0467301
0.134723
0.114672
0.135481
0.115266
0.0459518
0.0347313
0.0462262
0.0349554
0.063487
0.0327087
0.0639136
0.0330067
0.0190897
0.00834763
0.0192476
0.00844755
0.0157733
0.0157671
0.0160075
0.0160015
0.00274217
0.00273858
0.00279469
0.00279108
0.0327068
0.0635047
0.0330051
0.0639319
0.00834295
0.0190934
0.00844293
0.0192514
0.11472
0.134806
0.115314
0.135565
0.034748
0.0459843
0.0349724
0.0462591
0.132909
0.113222
0.133898
0.114022
0.0452908
0.0341933
0.0456551
0.0344908
0.0624291
0.0319759
0.0630223
0.0323902
0.0187125
0.00811667
0.018923
0.00824606
0.0152222
0.0152156
0.0155351
0.0155287
0.00262802
0.00262447
0.00269148
0.00268791
0.0319732
0.0624456
0.032388
0.0630395
0.00811188
0.0187158
0.00824134
0.0189265
0.113268
0.132989
0.114069
0.13398
0.0342093
0.0453221
0.0345072
0.045687
0.1304
0.110918
0.131768
0.112254
0.0443411
0.0333685
0.0448674
0.0338409
0.0606804
0.0307807
0.0617014
0.0314742
0.0181164
0.00775954
0.0184616
0.00796614
0.0143586
0.0143514
0.0148575
0.0148506
0.00246413
0.00246066
0.00255792
0.0025544
0.0307769
0.0606951
0.031471
0.0617172
0.0077546
0.0181191
0.00796129
0.0184646
0.110961
0.130476
0.112299
0.131846
0.0333835
0.0443711
0.0338565
0.0448981
0.127944
0.104959
0.129008
0.108907
0.042939
0.0315517
0.0437417
0.0327273
0.0569685
0.028655
0.0592204
0.0298685
0.0169409
0.00712981
0.0176449
0.00749202
0.0129639
0.0129559
0.0137426
0.0137351
0.00220466
0.00220133
0.00235015
0.00234673
0.0286495
0.0569805
0.029864
0.0592339
0.00712462
0.0169427
0.00748697
0.0176473
0.104998
0.128019
0.108948
0.129083
0.0315652
0.0429676
0.0327418
0.043771
0.0857298
0.0682252
0.033441
0.0274199
0.0766716
0.0609177
0.0290304
0.0239375
0.0238377
0.00569324
0.00624334
0.00293832
0.0197076
0.00464027
0.00549188
0.00286342
0.00218872
0.00218766
0.00278865
0.00278877
0.00207384
0.00207324
0.00283101
0.00283106
0.00568842
0.0238323
0.00293765
0.00624126
0.00463691
0.0197025
0.002863
0.00549026
0.0682359
0.0857649
0.0274202
0.0334577
0.0609251
0.0766988
0.0239367
0.0290421
0.156419
0.128377
0.126407
0.102302
0.140278
0.114658
0.113475
0.0915004
0.0682103
0.0308111
0.0480511
0.0162863
0.0584999
0.0248871
0.0409445
0.0126173
0.00964677
0.00963666
0.00373834
0.00373383
0.00684078
0.0068336
0.00294618
0.00294337
0.0308021
0.0682183
0.0162756
0.048052
0.0248786
0.0585051
0.0126087
0.040944
0.128412
0.156488
0.102324
0.126459
0.114686
0.140334
0.0915175
0.113517
0.194046
0.162004
0.178286
0.147807
0.173261
0.144005
0.159538
0.131695
0.0956094
0.0525833
0.0838627
0.0429469
0.0820511
0.0430941
0.0720129
0.0350783
0.0286449
0.0286418
0.019687
0.0196797
0.0214882
0.0214832
0.0144099
0.014402
0.0525864
0.095635
0.042943
0.0838792
0.0430936
0.0820698
0.035073
0.0720246
0.162065
0.194148
0.147855
0.178371
0.144053
0.173345
0.131733
0.159607
0.213026
0.179304
0.20525
0.172192
0.189552
0.158786
0.182916
0.152746
0.110269
0.0652046
0.104202
0.0599143
0.0943785
0.0534254
0.0893111
0.0491232
0.0409661
0.0409698
0.0357613
0.035762
0.0313567
0.0313573
0.0271921
0.0271903
0.0652211
0.110312
0.0599245
0.104237
0.0534348
0.0944107
0.0491279
0.0893368
0.179389
0.213161
0.172265
0.205369
0.158854
0.189662
0.152804
0.183013
0.221762
0.187333
0.218323
0.184168
0.196905
0.165505
0.194027
0.162874
0.11717
0.0712873
0.114449
0.068891
0.100048
0.0582849
0.0978297
0.0563867
0.046944
0.0469517
0.0446003
0.0446064
0.0360681
0.0360718
0.0342376
0.0342401
0.0713129
0.117226
0.0689127
0.1145
0.0583011
0.10009
0.0564
0.0978674
0.187436
0.221921
0.184263
0.218471
0.165587
0.197035
0.16295
0.194148
0.225239
0.19054
0.223962
0.189362
0.199769
0.168127
0.198725
0.167172
0.119926
0.0736939
0.118918
0.0728232
0.102253
0.0601508
0.101455
0.0594841
0.0492604
0.0492698
0.0484343
0.0484431
0.0378304
0.0378355
0.0372125
0.037217
0.0737241
0.119989
0.0728516
0.118978
0.0601704
0.102301
0.0595023
0.1015
0.190653
0.225413
0.189471
0.22413
0.168218
0.199911
0.167259
0.198862
0.226311
0.191542
0.225986
0.191235
0.200625
0.168919
0.200371
0.168682
0.120789
0.0744296
0.120526
0.0742126
0.102919
0.0606972
0.102722
0.0605416
0.0499401
0.0499501
0.0497486
0.0497585
0.0383178
0.0383232
0.0381884
0.0381937
0.0744615
0.120855
0.074244
0.120592
0.0607179
0.102969
0.060562
0.102771
0.19166
0.226492
0.191352
0.226164
0.169013
0.200773
0.168775
0.200517
0.226422
0.191669
0.226459
0.191691
0.200695
0.169002
0.200734
0.169028
0.120915
0.0745377
0.120927
0.0745498
0.103003
0.0607652
0.103019
0.0607805
0.0500307
0.0500408
0.0500492
0.0500594
0.0383694
0.0383749
0.0383898
0.0383953
0.07457
0.120983
0.0745821
0.120994
0.0607861
0.103053
0.0608014
0.103069
0.191789
0.226605
0.19181
0.226642
0.169098
0.200844
0.169123
0.200883
0.226207
0.19151
0.226363
0.191633
0.200501
0.168856
0.200639
0.168965
0.120812
0.0744646
0.120902
0.0745354
0.102908
0.0606986
0.102986
0.0607588
0.0499656
0.0499757
0.0500323
0.0500425
0.038309
0.0383144
0.0383655
0.038371
0.0744968
0.12088
0.0745677
0.12097
0.0607194
0.102958
0.0607797
0.103037
0.19163
0.226391
0.191754
0.226547
0.168952
0.200651
0.169061
0.200788
0.225849
0.191227
0.226069
0.191406
0.200187
0.168609
0.200378
0.168764
0.12061
0.074312
0.120746
0.07442
0.102732
0.0605693
0.102849
0.0606595
0.0498306
0.0498406
0.0499301
0.0499402
0.0381948
0.0382001
0.0382774
0.0382828
0.074344
0.120677
0.0744522
0.120813
0.0605899
0.102782
0.0606802
0.102899
0.191347
0.226033
0.191526
0.226253
0.168705
0.200337
0.168859
0.200528
0.225414
0.190881
0.225668
0.191087
0.199806
0.168308
0.200027
0.168486
0.120358
0.0741184
0.120516
0.0742458
0.102516
0.0604069
0.10265
0.0605128
0.0496578
0.0496676
0.0497757
0.0497857
0.0380507
0.0380559
0.0381483
0.0381536
0.0741501
0.120425
0.0742778
0.120583
0.0604273
0.102566
0.0605334
0.1027
0.191
0.225597
0.191206
0.225851
0.168404
0.199955
0.168582
0.200176
0.224922
0.19049
0.225203
0.190717
0.199372
0.167969
0.199619
0.168165
0.120073
0.0738984
0.120247
0.0740386
0.102271
0.0602222
0.102419
0.060339
0.0494608
0.0494705
0.0495912
0.049601
0.0378866
0.0378917
0.0379947
0.0379998
0.0739298
0.120139
0.0740702
0.120313
0.0602423
0.102321
0.0603593
0.102469
0.190609
0.225104
0.190836
0.225386
0.168063
0.199521
0.16826
0.199767
0.224376
0.190058
0.224683
0.190305
0.198889
0.167593
0.19916
0.167807
0.119758
0.073655
0.119946
0.0738067
0.102
0.0600174
0.102161
0.0601441
0.0492429
0.0492525
0.0493839
0.0493936
0.0377047
0.0377096
0.0378218
0.0378268
0.073686
0.119824
0.0738379
0.120012
0.0600372
0.102049
0.0601641
0.10221
0.190177
0.224558
0.190424
0.224865
0.167687
0.199037
0.167901
0.199308
0.223778
0.189588
0.224111
0.189854
0.198358
0.167181
0.198653
0.167413
0.119414
0.0733885
0.119616
0.0735517
0.101703
0.0597924
0.101877
0.0599291
0.0490041
0.0490135
0.0491557
0.0491652
0.0375047
0.0375096
0.0376309
0.0376358
0.0734191
0.119479
0.0735826
0.119682
0.0598119
0.101752
0.0599488
0.101926
0.189705
0.223958
0.189972
0.224293
0.167274
0.198505
0.167507
0.1988
0.223122
0.189073
0.223485
0.189362
0.197773
0.166731
0.198095
0.166982
0.119038
0.0730975
0.119257
0.0732731
0.101379
0.0595462
0.101567
0.0596936
0.0487433
0.0487526
0.0489059
0.0489153
0.0372859
0.0372905
0.0374215
0.0374262
0.0731277
0.119102
0.0733036
0.119322
0.0595653
0.101427
0.059713
0.101615
0.18919
0.223301
0.189479
0.223665
0.166824
0.197919
0.167076
0.198242
0.222406
0.188514
0.222799
0.188826
0.197135
0.166241
0.197484
0.166513
0.118629
0.072781
0.118864
0.0729694
0.101025
0.0592779
0.101228
0.0594364
0.0484595
0.0484685
0.0486336
0.0486428
0.0370471
0.0370516
0.0371927
0.0371973
0.0728108
0.118693
0.0729995
0.118929
0.0592967
0.101073
0.0594554
0.101276
0.18863
0.222585
0.188942
0.222978
0.166333
0.19728
0.166605
0.19763
0.221629
0.187908
0.222053
0.188243
0.196439
0.16571
0.196817
0.166002
0.118186
0.0724375
0.118439
0.0726395
0.100642
0.0589864
0.100859
0.0591566
0.0481512
0.0481601
0.0483376
0.0483466
0.0367875
0.0367918
0.0369436
0.036948
0.0724669
0.11825
0.0726691
0.118503
0.0590047
0.100689
0.0591752
0.100907
0.188023
0.221806
0.188359
0.222231
0.165801
0.196584
0.166094
0.196962
0.220786
0.187253
0.221243
0.187613
0.195684
0.165135
0.196092
0.165449
0.117707
0.0720659
0.117978
0.072282
0.100226
0.0586705
0.10046
0.0588529
0.0478174
0.047826
0.0480166
0.0480254
0.0365059
0.03651
0.036673
0.0366772
0.0720946
0.11777
0.0723111
0.118041
0.0586885
0.100273
0.0588711
0.100507
0.187367
0.220962
0.187727
0.22142
0.165226
0.195828
0.16554
0.196236
0.219874
0.186548
0.220366
0.186933
0.194867
0.164515
0.195306
0.164852
0.11719
0.0716647
0.11748
0.0718956
0.099778
0.0583293
0.100028
0.0585244
0.0474568
0.0474652
0.0476694
0.0476779
0.0362016
0.0362055
0.03638
0.036384
0.0716929
0.117252
0.0719241
0.117542
0.0583468
0.099824
0.0585422
0.100074
0.186661
0.220049
0.187046
0.220542
0.164605
0.19501
0.164942
0.195449
0.218892
0.185788
0.219419
0.186201
0.193986
0.163849
0.194457
0.164209
0.116634
0.0712332
0.116944
0.0714792
0.0992957
0.0579621
0.0995627
0.0581702
0.0470687
0.0470768
0.047295
0.0473033
0.0358737
0.0358773
0.0360638
0.0360676
0.0712608
0.116696
0.0715072
0.117005
0.057979
0.099341
0.0581874
0.0996084
0.1859
0.219066
0.186313
0.219593
0.163938
0.194127
0.164299
0.194599
0.217841
0.184977
0.218402
0.185414
0.193037
0.163134
0.193542
0.163519
0.11604
0.0707711
0.116368
0.0710323
0.0987781
0.0575681
0.0990629
0.0577895
0.0466526
0.0466604
0.0468928
0.0469008
0.0355218
0.0355252
0.0357238
0.0357274
0.0707981
0.1161
0.0710596
0.116429
0.0575845
0.0988228
0.0578062
0.099108
0.185088
0.218013
0.185525
0.218575
0.163222
0.193178
0.163608
0.193683
0.216717
0.184117
0.217315
0.184579
0.192024
0.162366
0.192561
0.162777
0.115406
0.0702779
0.115754
0.0705546
0.0982245
0.0571469
0.0985272
0.0573818
0.0462078
0.0462153
0.0464622
0.0464699
0.0351455
0.0351486
0.0353596
0.0353628
0.0703041
0.115466
0.0705812
0.115814
0.0571628
0.0982684
0.057398
0.0985715
0.184227
0.216888
0.18469
0.217486
0.162454
0.192163
0.162865
0.192701
0.21552
0.183202
0.216154
0.183692
0.190947
0.161551
0.191515
0.161985
0.114732
0.0697529
0.1151
0.0700453
0.0976356
0.0566988
0.0979557
0.0569469
0.0457341
0.0457413
0.0460028
0.0460102
0.0347449
0.0347477
0.0349709
0.0349739
0.0697784
0.114791
0.0700712
0.115159
0.056714
0.0976788
0.0569625
0.0979993
0.18331
0.215689
0.183801
0.216324
0.161637
0.191084
0.162072
0.191654
0.214253
0.182232
0.214921
0.182748
0.189806
0.16069
0.190406
0.161147
0.114018
0.0691968
0.114406
0.0695044
0.0970125
0.0562244
0.0973495
0.0564854
0.0452321
0.045239
0.0455146
0.0455217
0.0343206
0.0343231
0.0345582
0.0345609
0.0692215
0.114075
0.0695296
0.114464
0.056239
0.0970548
0.0565004
0.0973922
0.182339
0.21442
0.182856
0.21509
0.160775
0.189943
0.161233
0.190544
0.212918
0.18121
0.21362
0.181752
0.188606
0.159784
0.189236
0.160263
0.113266
0.0686107
0.113672
0.068933
0.0963564
0.0557247
0.0967095
0.0559981
0.0447028
0.0447093
0.0449986
0.0450053
0.0338735
0.0338757
0.0341222
0.0341245
0.0686346
0.113322
0.0689573
0.113729
0.0557386
0.0963978
0.0560124
0.0967515
0.181315
0.213083
0.181858
0.213786
0.159868
0.188741
0.160347
0.189371
0.21152
0.180139
0.212253
0.180705
0.187349
0.158834
0.188006
0.159335
0.112476
0.0679963
0.112901
0.0683322
0.0956683
0.0552011
0.0960372
0.0554861
0.0441477
0.0441538
0.0444559
0.0444622
0.0334052
0.033407
0.0336641
0.0336661
0.0680193
0.112532
0.0683557
0.112957
0.0552143
0.0957089
0.0554997
0.0960783
0.180243
0.211684
0.18081
0.212417
0.158917
0.187482
0.159419
0.18814
0.210066
0.179022
0.210825
0.17961
0.186041
0.157842
0.186722
0.158363
0.111654
0.0673562
0.112094
0.0677044
0.0949512
0.0546561
0.0953338
0.0549512
0.0435693
0.043575
0.0438886
0.0438945
0.0329178
0.0329192
0.0331857
0.0331873
0.0673783
0.111708
0.067727
0.112149
0.0546685
0.0949908
0.0549641
0.0953739
0.179125
0.210228
0.179714
0.210988
0.157923
0.186173
0.158445
0.186855
0.208564
0.177868
0.209346
0.178474
0.184693
0.156818
0.185393
0.157353
0.110803
0.0666939
0.111257
0.0670525
0.0942102
0.0540927
0.0946041
0.0543964
0.0429706
0.0429759
0.0432994
0.0433049
0.0324139
0.032415
0.0326895
0.0326907
0.0667151
0.110856
0.0670742
0.11131
0.0541044
0.0942488
0.0544086
0.0946433
0.177969
0.208723
0.178576
0.209507
0.156898
0.184823
0.157435
0.185525
0.207022
0.176681
0.207823
0.177302
0.18331
0.155767
0.184026
0.156316
0.109928
0.0660132
0.110393
0.0663803
0.093449
0.0535141
0.0938524
0.0538248
0.042355
0.0423598
0.0426915
0.0426966
0.0318967
0.0318973
0.0321783
0.0321791
0.0660333
0.10998
0.066401
0.110446
0.0535251
0.0934866
0.0538362
0.0938906
0.176781
0.20718
0.177403
0.207981
0.155846
0.183439
0.156395
0.184156
0.20545
0.17547
0.206264
0.176102
0.181901
0.154696
0.182629
0.155254
0.109035
0.0653183
0.109508
0.0656916
0.0926717
0.052924
0.0930824
0.0532398
0.0417267
0.0417311
0.0420688
0.0420734
0.0313697
0.0313699
0.0316554
0.0316559
0.0653375
0.109085
0.0657114
0.109559
0.0529341
0.0927084
0.0532504
0.0931197
0.175568
0.205606
0.176201
0.206421
0.154773
0.182028
0.155332
0.182757
0.203858
0.17424
0.204681
0.174881
0.180474
0.153608
0.18121
0.154173
0.108128
0.0646139
0.108607
0.0649912
0.0918829
0.0523263
0.0922987
0.0526452
0.0410904
0.0410943
0.0414356
0.0414398
0.0308372
0.030837
0.0311249
0.0311249
0.0646321
0.108177
0.0650099
0.108657
0.0523357
0.0919186
0.0526549
0.0923349
0.174336
0.204012
0.174978
0.204836
0.153685
0.180599
0.15425
0.181336
0.202255
0.172998
0.203083
0.173644
0.179038
0.152509
0.179778
0.153079
0.107212
0.0639041
0.107695
0.0642835
0.0910868
0.0517252
0.0915056
0.0520451
0.0404502
0.0404536
0.0407966
0.0408003
0.0303032
0.0303026
0.0305909
0.0305905
0.0639213
0.10726
0.0643012
0.107744
0.0517338
0.0911215
0.0520541
0.0915408
0.173092
0.202406
0.173739
0.203235
0.152584
0.179161
0.153155
0.179902
0.200638
0.171741
0.201474
0.172395
0.177594
0.1514
0.178338
0.151976
0.106285
0.0631887
0.106775
0.0635711
0.0902842
0.051122
0.0907066
0.051443
0.0398075
0.0398105
0.0401551
0.0401583
0.02977
0.0297689
0.030057
0.0300562
0.0632048
0.106332
0.0635879
0.106822
0.0511298
0.0903178
0.0514512
0.0907407
0.171833
0.200787
0.172489
0.201624
0.151474
0.177716
0.15205
0.178461
0.198981
0.170443
0.199842
0.171123
0.176123
0.150262
0.176885
0.150856
0.105328
0.0624546
0.105837
0.0628491
0.0894613
0.0505086
0.0898968
0.0508365
0.0391543
0.0391568
0.0395089
0.0395116
0.0292336
0.0292322
0.0295231
0.0295219
0.0624697
0.105373
0.0628648
0.105883
0.0505155
0.0894938
0.0508438
0.0899299
0.170533
0.199128
0.171215
0.19999
0.150335
0.176242
0.150929
0.177006
0.197203
0.169029
0.19814
0.16978
0.174558
0.149037
0.175379
0.149686
0.10428
0.0616577
0.104845
0.0620918
0.0885722
0.0498533
0.0890494
0.0502081
0.038457
0.038459
0.0388401
0.0388424
0.0286727
0.0286709
0.0289787
0.0289771
0.0616717
0.104323
0.0621065
0.104889
0.0498594
0.0886035
0.0502146
0.0890814
0.169117
0.197346
0.16987
0.198285
0.149107
0.174675
0.149757
0.175497
0.195125
0.167333
0.196241
0.168254
0.172748
0.147585
0.173717
0.148371
0.103
0.0606865
0.103706
0.0612274
0.0875054
0.0490729
0.088091
0.0495052
0.0376224
0.0376238
0.0380909
0.0380926
0.0280226
0.0280202
0.0283851
0.0283831
0.0606991
0.103041
0.0612408
0.103748
0.0490779
0.0875352
0.0495108
0.0881216
0.167418
0.195265
0.168341
0.196383
0.147653
0.172862
0.14844
0.173833
0.192427
0.165019
0.193902
0.166306
0.170415
0.145624
0.17169
0.146713
0.101191
0.0593002
0.102213
0.0600895
0.0860163
0.0479781
0.0868561
0.0486004
0.0364434
0.0364439
0.0371186
0.0371196
0.0271287
0.0271257
0.0276397
0.0276371
0.0593109
0.10123
0.0601013
0.102253
0.0479818
0.0860441
0.0486049
0.086885
0.165101
0.192562
0.16639
0.19404
0.14569
0.170525
0.14678
0.171802
0.188757
0.161303
0.190739
0.163446
0.167199
0.142449