/*--------------------------------*- C++ -*----------------------------------*\
  =========                 |
  \\      /  F ield         | OpenFOAM: The Open Source CFD Toolbox
   \\    /   O peration     | Website:  https://openfoam.org
    \\  /    A nd           | Version:  9
     \\/     M anipulation  |
\*---------------------------------------------------------------------------*/
FoamFile
{
    format      ascii;
    class       volScalarField;
    location    "1.7";
    object      nut;
}
// * * * * * * * * * * * * * * * * * * * * * * * * * * * * * * * * * * * * * //

dimensions      [0 2 -1 0 0 0 0];

internalField   nonuniform List<scalar> 
36360
(
0.00170572
0.00141718
0.000744323
0.000647245
0.00032185
0.000271417
0.000202555
0.000187964
0.000610383
0.000221514
0.000229162
0.000159489
0.000171014
0.000138902
0.000160771
0.000161396
0.000146747
0.000146725
0.000158771
0.000158769
0.000138086
0.000138086
0.000161633
0.000161633
0.000221429
0.000610208
0.000159472
0.000229121
0.000138901
0.000171002
0.000161395
0.000160768
0.00141732
0.00170625
0.000647216
0.00074454
0.000271424
0.000321898
0.000187961
0.000202564
0.00295071
0.00255031
0.00243729
0.00206539
0.000542631
0.00046196
0.000458616
0.000386076
0.00165826
0.000900646
0.00120123
0.000470668
0.000305055
0.000167442
0.000226654
0.000141202
0.000322709
0.00032244
0.000192567
0.000192535
0.000114639
0.000114621
0.000122037
0.000122035
0.000900303
0.00165837
0.000470432
0.0012012
0.000167394
0.000305047
0.000141181
0.000226634
0.00255086
0.00295176
0.00206574
0.00243809
0.000462014
0.00054274
0.000386105
0.000458699
0.00355666
0.00314059
0.00330729
0.00289569
0.000629004
0.000545582
0.000595204
0.000512469
0.00224713
0.0014878
0.00200005
0.00123268
0.000394991
0.000251334
0.000359185
0.000213528
0.000893918
0.000893703
0.000597864
0.000597463
0.00014069
0.000140623
0.00012209
0.000122051
0.00148776
0.00224757
0.00123247
0.00200031
0.000251274
0.000395014
0.000213464
0.000359193
0.00314156
0.0035582
0.00289645
0.00330858
0.000545676
0.000629163
0.000512543
0.000595339
0.00384982
0.0034308
0.00373065
0.00331265
0.000665357
0.000581467
0.00065106
0.000567348
0.00254281
0.00180531
0.0024223
0.00167466
0.000433503
0.000293876
0.000418432
0.000277138
0.00129907
0.00129919
0.00113064
0.00113061
0.000178994
0.000178921
0.000162595
0.000162521
0.00180564
0.00254358
0.00167481
0.00242291
0.000293832
0.000433552
0.000277086
0.00041847
0.00343215
0.00385182
0.00331381
0.00373242
0.000581596
0.00066556
0.00056746
0.000651242
0.00398228
0.00356187
0.00393035
0.00351063
0.000680196
0.000596044
0.000674549
0.000590522
0.00267593
0.0019495
0.00262413
0.00189375
0.000448874
0.000310676
0.000443094
0.000304448
0.0014823
0.00148259
0.00141239
0.00141261
0.000196615
0.000196546
0.000190028
0.000189958
0.00195008
0.00267694
0.00189423
0.00262503
0.000310645
0.000448942
0.000304412
0.000443154
0.00356349
0.00398464
0.00351213
0.00393254
0.000596198
0.000680434
0.000590665
0.000674772
0.00403486
0.00361313
0.00401552
0.00359446
0.000685505
0.000601168
0.000683633
0.000599385
0.00272705
0.00200311
0.00270864
0.00198421
0.000454185
0.000316159
0.000452347
0.000314325
0.00154691
0.00154727
0.00152484
0.00152517
0.000202352
0.000202285
0.000200484
0.000200417
0.0020038
0.00272819
0.00198486
0.00270972
0.000316134
0.000454262
0.000314297
0.000452421
0.00361493
0.00403743
0.00359618
0.004018
0.000601336
0.000685763
0.000599547
0.000683883
0.00405187
0.0036291
0.00404649
0.00362422
0.000686951
0.000602486
0.000686554
0.000602152
0.00274251
0.0020183
0.00273793
0.00201411
0.000455586
0.000317453
0.000455218
0.000317162
0.00156341
0.00156379
0.00155943
0.0015598
0.000203537
0.00020347
0.000203341
0.000203275
0.00201903
0.0027437
0.00201483
0.0027391
0.000317428
0.000455667
0.000317138
0.000455298
0.00363097
0.00405455
0.00362607
0.00404913
0.000602659
0.000687219
0.000602323
0.000686818
0.00405478
0.00363139
0.00405478
0.00363165
0.000687017
0.000602475
0.0006871
0.000602592
0.00274461
0.00202012
0.00274495
0.00202063
0.000455682
0.000317498
0.000455752
0.000317592
0.00156467
0.00156505
0.00156569
0.00156607
0.000203522
0.000203455
0.000203653
0.000203586
0.00202085
0.00274581
0.00202136
0.00274615
0.000317473
0.000455764
0.000317568
0.000455833
0.00363328
0.00405749
0.00363354
0.00405748
0.000602651
0.000687287
0.000602768
0.00068737
0.00405332
0.00362962
0.00405477
0.00363119
0.000686671
0.000602076
0.000686921
0.000602354
0.00274287
0.00201838
0.00274444
0.00202003
0.000455417
0.000317221
0.000455627
0.000317442
0.00156224
0.00156262
0.00156446
0.00156484
0.000203194
0.000203127
0.000203455
0.000203388
0.00201911
0.00274407
0.00202076
0.00274564
0.000317196
0.000455498
0.000317417
0.000455709
0.00363152
0.00405604
0.00363309
0.00405749
0.000602251
0.000686942
0.00060253
0.000687192
0.00404974
0.00362598
0.00405217
0.00362844
0.000686115
0.000601488
0.000686463
0.000601854
0.00273931
0.00201489
0.00274177
0.00201739
0.000454949
0.000316749
0.000455263
0.000317073
0.00155787
0.00155825
0.00156105
0.00156143
0.00020267
0.000202602
0.000203034
0.000202966
0.00201561
0.0027405
0.00201811
0.00274297
0.000316723
0.00045503
0.000317047
0.000455344
0.00362788
0.00405246
0.00363034
0.0040549
0.000601664
0.000686385
0.00060203
0.000686733
0.00404506
0.00362145
0.00404798
0.00362429
0.00068544
0.000600801
0.000685842
0.000601211
0.00273487
0.00201044
0.00273772
0.00201342
0.000454375
0.000316171
0.000454738
0.000316552
0.00155239
0.00155276
0.00155614
0.00155651
0.000202036
0.000201968
0.000202461
0.000202393
0.00201115
0.00273606
0.00201414
0.00273891
0.000316144
0.000454455
0.000316526
0.000454819
0.00362333
0.00404778
0.00362618
0.0040507
0.000600976
0.000685709
0.000601386
0.000686112
0.00403956
0.00361627
0.00404288
0.00361942
0.000684667
0.000600026
0.000685118
0.000600481
0.00272983
0.00200534
0.00273297
0.00200864
0.000453714
0.000315511
0.00045412
0.000315933
0.00154612
0.00154648
0.00155031
0.00155068
0.000201318
0.000201249
0.000201791
0.000201722
0.00200604
0.00273101
0.00200935
0.00273416
0.000315483
0.000453793
0.000315906
0.0004542
0.00361815
0.00404226
0.00362131
0.00404559
0.000600201
0.000684936
0.000600656
0.000685387
0.00403331
0.0036105
0.00403699
0.00361394
0.000683801
0.00059917
0.000684298
0.000599665
0.00272424
0.00199964
0.00272765
0.00200324
0.000452971
0.000314772
0.000453418
0.000315234
0.00153914
0.0015395
0.0015437
0.00154406
0.000200518
0.000200448
0.000201033
0.000200964
0.00200033
0.00272542
0.00200394
0.00272883
0.000314743
0.00045305
0.000315205
0.000453497
0.00361238
0.00403601
0.00361582
0.0040397
0.000599344
0.000684069
0.000599839
0.000684567
0.00402634
0.00360416
0.00403039
0.00360789
0.000682842
0.000598229
0.000683385
0.000598767
0.00271812
0.00199334
0.00272179
0.00199724
0.000452148
0.00031395
0.000452635
0.000314454
0.00153143
0.00153178
0.00153635
0.00153671
0.000199634
0.000199563
0.000200191
0.000200121
0.00199402
0.00271928
0.00199793
0.00272296
0.000313921
0.000452225
0.000314424
0.000452714
0.00360602
0.00402903
0.00360976
0.00403308
0.000598402
0.000683109
0.00059894
0.000683653
0.00401862
0.0035972
0.00402304
0.00360124
0.000681781
0.000597197
0.000682376
0.000597781
0.00271141
0.00198641
0.00271538
0.00199063
0.000451237
0.000313042
0.000451769
0.00031359
0.00152294
0.00152329
0.00152826
0.00152861
0.000198659
0.000198587
0.000199262
0.000199191
0.00198709
0.00271257
0.00199131
0.00271654
0.000313012
0.000451314
0.00031356
0.000451846
0.00359905
0.00402129
0.0036031
0.00402573
0.000597369
0.000682047
0.000597953
0.000682643
0.00401011
0.00358959
0.00401493
0.00359396
0.000680616
0.000596068
0.000681264
0.000596701
0.0027041
0.00197884
0.00270838
0.00198338
0.000450235
0.000312043
0.000450814
0.000312637
0.00151364
0.00151398
0.00151937
0.00151971
0.000197587
0.000197515
0.000198239
0.000198167
0.0019795
0.00270524
0.00198405
0.00270953
0.000312011
0.000450311
0.000312605
0.00045089
0.00359143
0.00401278
0.00359581
0.0040176
0.000596239
0.000680881
0.000596873
0.00068153
0.00400079
0.0035813
0.00400602
0.00358601
0.000679341
0.000594834
0.000680045
0.000595521
0.00269614
0.00197057
0.00270074
0.00197546
0.000449137
0.000310946
0.000449764
0.000311589
0.00150348
0.0015038
0.00150964
0.00150997
0.000196415
0.000196342
0.000197118
0.000197045
0.00197122
0.00269727
0.00197611
0.00270188
0.000310912
0.000449212
0.000311556
0.000449839
0.00358313
0.00400344
0.00358785
0.00400868
0.000595004
0.000679605
0.000595691
0.000680309
0.00399061
0.00357227
0.00399628
0.00357736
0.000677949
0.000593486
0.000678712
0.000594232
0.00268749
0.00196159
0.00269244
0.00196684
0.000447935
0.000309745
0.000448614
0.000310441
0.00149241
0.00149272
0.00149903
0.00149935
0.000195136
0.000195062
0.000195892
0.000195818
0.00196222
0.00268861
0.00196748
0.00269357
0.000309711
0.000448009
0.000310407
0.000448689
0.00357409
0.00399325
0.00357919
0.00399892
0.000593655
0.000678212
0.000594401
0.000678976
0.00397956
0.00356249
0.00398566
0.00356796
0.000676434
0.000592016
0.000677259
0.000592822
0.00267813
0.00195185
0.00268344
0.00195748
0.000446624
0.000308437
0.000447359
0.000309187
0.00148039
0.00148069
0.00148748
0.00148779
0.000193745
0.000193669
0.000194557
0.000194482
0.00195247
0.00267924
0.0019581
0.00268455
0.000308401
0.000446697
0.000309151
0.000447432
0.0035643
0.00398219
0.00356978
0.0039883
0.000592183
0.000676695
0.000592991
0.000677521
0.0039676
0.00355193
0.00397416
0.00355779
0.000674792
0.00059042
0.000675681
0.00059129
0.00266803
0.00194134
0.00267371
0.00194736
0.000445201
0.000307015
0.000445992
0.000307822
0.00146739
0.00146768
0.00147497
0.00147527
0.000192237
0.00019216
0.000193107
0.000193031
0.00194194
0.00266912
0.00194796
0.00267481
0.000306977
0.000445273
0.000307785
0.000446064
0.00355372
0.00397021
0.00355959
0.00397678
0.000590586
0.000675052
0.000591457
0.000675942
0.00395471
0.00354058
0.00396173
0.00354683
0.000673019
0.000588702
0.000673974
0.000589631
0.00265718
0.00193005
0.00266324
0.00193645
0.000443664
0.000305476
0.000444512
0.000306342
0.00145339
0.00145367
0.00146147
0.00146176
0.000190609
0.000190531
0.000191539
0.000191462
0.00193063
0.00265826
0.00193704
0.00266432
0.000305437
0.000443734
0.000306303
0.000444583
0.00354236
0.0039573
0.00354862
0.00396434
0.000588867
0.000673278
0.000589796
0.000674233
0.00394087
0.00352842
0.00394837
0.00353508
0.000671115
0.000586865
0.000672136
0.000587856
0.00264556
0.00191795
0.002652
0.00192475
0.000442009
0.000303817
0.000442916
0.000304743
0.00143836
0.00143862
0.00144695
0.00144722
0.000188859
0.00018878
0.00018985
0.000189771
0.00191851
0.00264662
0.00192532
0.00265307
0.000303776
0.000442077
0.000304703
0.000442985
0.00353018
0.00394345
0.00353685
0.00395096
0.000587029
0.000671372
0.00058802
0.000672394
0.0039261
0.00351545
0.00393406
0.00352251
0.000669078
0.000584899
0.000670165
0.000585954
0.00263316
0.00190504
0.00263999
0.00191224
0.000440234
0.000302037
0.000441201
0.000303024
0.00142231
0.00142255
0.00143141
0.00143166
0.000186987
0.000186906
0.000188038
0.000187958
0.00190558
0.0026342
0.00191279
0.00264104
0.000301994
0.000440301
0.000302981
0.000441269
0.00351719
0.00392865
0.00352427
0.00393663
0.000585061
0.000669334
0.000586116
0.000670421
0.0039104
0.00350168
0.00391882
0.00350913
0.000666913
0.000582805
0.000668064
0.000583923
0.00262
0.00189135
0.00262721
0.00189894
0.00043834
0.000300136
0.000439367
0.000301182
0.00140524
0.00140547
0.00141484
0.00141508
0.000184994
0.000184911
0.000186104
0.000186022
0.00189186
0.00262103
0.00189946
0.00262824
0.00030009
0.000438406
0.000301138
0.000439433
0.0035034
0.00391294
0.00351087
0.00392137
0.000582965
0.000667167
0.000584084
0.000668318
0.00389384
0.00348714
0.00390269
0.00349497
0.000664624
0.000580588
0.000665836
0.000581767
0.00260611
0.0018769
0.00261367
0.00188486
0.000436331
0.000298116
0.000437415
0.000299221
0.00138721
0.00138742
0.00139728
0.0013975
0.000182884
0.0001828
0.000184051
0.000183968
0.00187739
0.00260711
0.00188536
0.00261469
0.000298068
0.000436394
0.000299175
0.000437479
0.00348885
0.00389636
0.00349669
0.00390522
0.000580747
0.000664876
0.000581927
0.000666089
0.00387646
0.00347186
0.0038857
0.00348007
0.00066222
0.000578247
0.000663488
0.000579488
0.00259152
0.00186174
0.00259942
0.00187004
0.00043421
0.000295982
0.000435348
0.000297144
0.00136826
0.00136845
0.00137877
0.00137897
0.000180664
0.000180579
0.000181884
0.0001818
0.0018622
0.0025925
0.00187052
0.00260042
0.000295932
0.000434271
0.000297095
0.000435411
0.00347355
0.00387895
0.00348176
0.00388821
0.000578404
0.00066247
0.000579646
0.000663739
0.00385835
0.00345591
0.00386795
0.00346443
0.000659709
0.000575799
0.000661029
0.00057709
0.0025763
0.00184594
0.0025845
0.00185454
0.000431986
0.000293741
0.000433175
0.000294955
0.00134848
0.00134865
0.00135938
0.00135957
0.000178343
0.000178255
0.000179611
0.000179525
0.00184638
0.00257726
0.001855
0.00258547
0.000293689
0.000432046
0.000294904
0.000433236
0.00345758
0.00386082
0.00346611
0.00387043
0.000575954
0.000659957
0.000577246
0.000661278
0.00383959
0.0034394
0.0038495
0.00344819
0.000657102
0.000573259
0.000658468
0.000574595
0.00256053
0.00182958
0.002569
0.00183845
0.000429668
0.000291402
0.000430903
0.000292664
0.00132797
0.00132811
0.00133922
0.00133938
0.000175931
0.000175842
0.000177242
0.000177154
0.00182999
0.00256147
0.00183887
0.00256995
0.000291347
0.000429726
0.00029261
0.000430962
0.00344105
0.00384205
0.00344985
0.00385197
0.000573412
0.000657348
0.000574749
0.000658715
0.00382029
0.0034224
0.00383046
0.00343142
0.000654414
0.000570641
0.000655819
0.000572014
0.00254429
0.00181274
0.00255298
0.00182183
0.000427266
0.000288974
0.000428542
0.000290278
0.00130685
0.00130698
0.00131838
0.00131852
0.000173444
0.000173353
0.000174789
0.000174699
0.00181312
0.00254521
0.00182223
0.00255391
0.000288916
0.000427322
0.000290222
0.000428598
0.00342402
0.00382272
0.00343306
0.0038329
0.000570792
0.000654658
0.000572166
0.000656064
0.00380052
0.00340497
0.00381091
0.0034142
0.00065166
0.000567967
0.000653096
0.000569364
0.00252765
0.00179553
0.00253653
0.00180479
0.000424793
0.000286472
0.000426102
0.000287811
0.00128529
0.00128539
0.00129701
0.00129713
0.000170899
0.000170807
0.000172269
0.000172178
0.00179588
0.00252854
0.00180516
0.00253743
0.000286412
0.000424847
0.000287752
0.000426157
0.00340657
0.00380293
0.00341581
0.00381333
0.000568116
0.000651902
0.000569514
0.000653339
0.00378035
0.00338715
0.00379094
0.00339658
0.000648856
0.00056526
0.000650315
0.000566671
0.00251066
0.00177806
0.00251971
0.00178743
0.000422264
0.000283916
0.000423598
0.000285279
0.00126345
0.00126353
0.00127528
0.00127537
0.000168319
0.000168225
0.000169703
0.000169609
0.00177838
0.00251153
0.00178777
0.00252059
0.000283853
0.000422315
0.000285218
0.000423651
0.00338873
0.00378273
0.00339817
0.00379333
0.000565407
0.000649096
0.000566819
0.000650556
0.0037598
0.00336874
0.00377057
0.00337849
0.000646026
0.000562579
0.000647495
0.000563966
0.00249335
0.00176044
0.00250255
0.00176986
0.0004197
0.000281326
0.000421049
0.000282703
0.00124152
0.00124158
0.00125337
0.00125343
0.000165723
0.000165628
0.000167111
0.000167016
0.00176074
0.0024942
0.00177017
0.00250341
0.000281261
0.000419749
0.000282639
0.0004211
0.00337031
0.00376216
0.00338006
0.00377294
0.000562723
0.000646264
0.000564111
0.000647734
0.0037389
0.00334985
0.00374985
0.00335979
0.00064318
0.000559897
0.000644657
0.000561295
0.00247582
0.00174277
0.00248512
0.00175221
0.000417114
0.00027872
0.000418474
0.000280104
0.00121965
0.00121968
0.00123145
0.00123149
0.000163133
0.000163035
0.000164514
0.000164418
0.00174304
0.00247664
0.0017525
0.00248596
0.000278653
0.000417161
0.000280037
0.000418522
0.00335139
0.00374122
0.00336135
0.00375219
0.000560039
0.000643415
0.000561438
0.000644893
0.00371719
0.00333031
0.00372865
0.00334068
0.000640291
0.000557172
0.000641797
0.000558598
0.00245779
0.00172486
0.00246741
0.00173447
0.00041449
0.000276096
0.000415873
0.000277491
0.00119776
0.00119776
0.00120959
0.0012096
0.000160554
0.000160455
0.000161928
0.00016183
0.00172509
0.00245859
0.00173472
0.00246823
0.000276026
0.000414535
0.000277422
0.00041592
0.00333182
0.00371949
0.0033422
0.00373097
0.000557311
0.000640523
0.000558738
0.000642031
0.00369317
0.00330879
0.00370606
0.00332039
0.000637241
0.000554298
0.00063885
0.000555818
0.00243814
0.00170581
0.00244878
0.00171616
0.000411746
0.0002734
0.000413206
0.000274842
0.00117522
0.00117519
0.0011875
0.00118749
0.000157963
0.000157863
0.000159349
0.00015925
0.00170602
0.00243891
0.00171638
0.00244957
0.000273328
0.000411788
0.000274771
0.00041325
0.00331026
0.00369543
0.00332188
0.00370834
0.000554434
0.00063747
0.000555956
0.000639081
0.0036636
0.00328237
0.00367981
0.0032969
0.000633734
0.000551008
0.000635625
0.000552784
0.00241418
0.00168328
0.00242744
0.0016958
0.000408639
0.000270437
0.000410325
0.000272051
0.00114985
0.0011498
0.00116396
0.00116393
0.000155232
0.000155131
0.000156713
0.000156613
0.00168345
0.00241492
0.00169599
0.00242819
0.000270362
0.000408678
0.000271977
0.000410367
0.0032838
0.00366581
0.00329836
0.00368204
0.00055114
0.000633958
0.000552918
0.000635851
0.0036226
0.00324554
0.00364544
0.00326618
0.000629158
0.000546722
0.000631684
0.000549096
0.00238031
0.00165183
0.00239949
0.00166974
0.000404579
0.000266669
0.00040685
0.000268786
0.00111609
0.00111601
0.00113538
0.00113532
0.000151961
0.000151859
0.000153788
0.000153687
0.00165196
0.002381
0.0016699
0.00240021
0.000266591
0.000404615
0.00026871
0.000406888
0.00324692
0.00362474
0.00326759
0.00364761
0.00054685
0.000629376
0.000549227
0.000631905
0.00356167
0.00318722
0.00359555
0.00322063
0.000622526
0.000540087
0.000626209
0.000543897
0.00232502
0.00160136
0.00235685
0.00163027
0.000398082
0.000260735
0.000401857
0.000264183
0.00106333
0.00106319
0.00109363
0.00109352
0.000147135
0.000147032
0.000149916
0.000149813
0.00160142
0.00232564
0.00163036
0.00235751
0.000260653
0.000398113
0.000264104
0.000401891
0.00318853
0.00356372
0.00322198
0.00359764
0.00054021
0.000622737
0.000544022
0.000626424
0.00347866
0.00307215
0.00352286
0.00314161
0.00061261
0.000525182
0.000618306
0.000534874
0.00223488
0.00152835
0.00228422
0.00156681
0.000384957
0.000249938
0.00039287
0.000256203
0.000986389
0.00098616
0.00102785
0.00102767
0.000139159
0.000139054
0.000143685
0.000143581
0.00152831
0.00223542
0.00156683
0.0022848
0.000249848
0.000384978
0.000256117
0.000392897
0.00307336
0.00348064
0.00314287
0.00352488
0.000525295
0.000612815
0.000534993
0.000618513
0.00246458
0.00205865
0.0011225
0.000940574
0.00219973
0.00183194
0.000981423
0.000825757
0.00105756
0.000360623
0.000310814
0.000173398
0.000887104
0.000297184
0.000274166
0.000166991
0.000171905
0.000171814
0.000156732
0.00015674
0.000160144
0.000160089
0.000158533
0.000158538
0.000360341
0.00105735
0.000173353
0.000310725
0.00029698
0.000886898
0.000166962
0.000274096
0.00205901
0.00246563
0.000940625
0.00112304
0.0018322
0.00220055
0.000825763
0.00098181
0.00432692
0.00376148
0.00352406
0.00301274
0.00384858
0.00333264
0.00314722
0.00267979
0.00262986
0.00159921
0.00192191
0.00093508
0.00227204
0.00132548
0.00165464
0.00074661
0.000729299
0.000728683
0.000305413
0.000305094
0.000534326
0.000533866
0.000244755
0.000244546
0.00159885
0.00263018
0.000934542
0.00192196
0.00132511
0.00227226
0.000746153
0.00165464
0.00376259
0.00432894
0.00301347
0.0035256
0.0033335
0.00385019
0.00268034
0.00314843
0.00536949
0.00475614
0.00492717
0.00433152
0.00473207
0.00417631
0.00436116
0.0038197
0.00359196
0.00256802
0.00317787
0.0021407
0.00309051
0.00214188
0.00274166
0.00178529
0.00187535
0.00187546
0.00135843
0.00135824
0.00146661
0.00146656
0.0010436
0.00104331
0.00256837
0.00359297
0.00214066
0.00317851
0.00214203
0.00309125
0.00178514
0.00274212
0.00475809
0.00537257
0.00433304
0.00492971
0.00417783
0.0047345
0.00382088
0.00436317
0.00591746
0.00528691
0.00569064
0.00506666
0.00518227
0.00461297
0.0049973
0.00443316
0.00411731
0.00312954
0.00389843
0.00289371
0.0035234
0.002602
0.00334455
0.0024101
0.00254881
0.00254931
0.00226823
0.00226856
0.00202869
0.00202901
0.0017949
0.00179506
0.00313059
0.00411903
0.00289444
0.00389981
0.0026027
0.00352468
0.00241054
0.00334557
0.00528967
0.00592155
0.00506903
0.00569423
0.00461511
0.00518548
0.004435
0.00500013
0.00617864
0.00554105
0.00607484
0.00544007
0.00539193
0.00481695
0.00530914
0.00473647
0.00437036
0.00340257
0.00426999
0.00329469
0.00372631
0.00282012
0.00364647
0.00273468
0.00286707
0.00286778
0.00274255
0.00274317
0.00228929
0.00228981
0.00218833
0.00218878
0.00340408
0.00437262
0.00329601
0.00427201
0.00282119
0.00372799
0.00273559
0.00364797
0.00554444
0.00618352
0.00544318
0.00607936
0.00481957
0.00539574
0.00473888
0.00531267
0.00628673
0.00564595
0.0062465
0.00560701
0.0054769
0.00489918
0.00544549
0.00486891
0.00447383
0.00351202
0.0044357
0.00347223
0.00380709
0.00290493
0.00377761
0.00287448
0.00299077
0.00299158
0.00294644
0.00294721
0.00238686
0.00238746
0.0023525
0.00235307
0.00351377
0.00447638
0.00347389
0.00443813
0.00290618
0.00380898
0.00287566
0.00377942
0.00564972
0.0062921
0.00561062
0.00625166
0.00490208
0.00548108
0.00487169
0.00544952
0.00632309
0.005681
0.0063114
0.0056698
0.00550478
0.00492581
0.00549593
0.00491746
0.00450771
0.00354643
0.0044971
0.00353607
0.00383265
0.00293046
0.00382482
0.00292303
0.00302802
0.00302886
0.00301725
0.00301809
0.00241452
0.00241516
0.00240697
0.00240759
0.00354827
0.00451039
0.00353787
0.00449973
0.00293177
0.00383464
0.00292432
0.00382678
0.00568494
0.0063287
0.00567368
0.00631691
0.00492885
0.00550914
0.00492045
0.00550023
0.00633015
0.00568777
0.00632974
0.0056874
0.00550974
0.00493042
0.00550966
0.00493043
0.00451412
0.0035524
0.00451389
0.00355256
0.00383695
0.00293432
0.00383706
0.00293474
0.00303374
0.00303459
0.00303444
0.0030353
0.00241803
0.00241867
0.00241894
0.00241958
0.00355426
0.00451683
0.00355441
0.0045166
0.00293564
0.00383896
0.00293606
0.00383907
0.00569178
0.00633584
0.00569139
0.0063354
0.00493349
0.00551416
0.00493349
0.00551406
0.00632789
0.00568574
0.0063305
0.00568815
0.00550756
0.00492832
0.00550982
0.00493047
0.00451226
0.00355034
0.00451459
0.00355291
0.00383502
0.00293223
0.00383708
0.00293447
0.00303123
0.00303208
0.00303433
0.00303519
0.00241536
0.002416
0.00241815
0.00241879
0.00355219
0.00451498
0.00355477
0.00451731
0.00293355
0.00383703
0.0029358
0.0038391
0.00568975
0.00633361
0.00569216
0.0063362
0.0049314
0.005512
0.00493355
0.00551425
0.0063217
0.00567997
0.00632607
0.00568411
0.00550223
0.00492328
0.00550591
0.0049268
0.00450693
0.00354494
0.0045109
0.00354905
0.00383034
0.00292752
0.00383372
0.002931
0.00302519
0.00302604
0.00302987
0.00303073
0.00240993
0.00241056
0.00241402
0.00241466
0.00354679
0.00450964
0.0035509
0.00451361
0.00292883
0.00383234
0.00293232
0.00383573
0.00568398
0.0063274
0.00568813
0.00633179
0.00492635
0.00550667
0.00492988
0.00551035
0.0063137
0.00567253
0.00631884
0.00567738
0.0054954
0.00491689
0.00549973
0.00492099
0.00449997
0.0035378
0.00450466
0.00354276
0.00382436
0.0029214
0.00382831
0.00292558
0.00301722
0.00301807
0.00302283
0.00302368
0.00240292
0.00240355
0.00240779
0.00240842
0.00353963
0.00450267
0.0035446
0.00450736
0.0029227
0.00382635
0.00292689
0.00383031
0.00567653
0.00631939
0.00568139
0.00632454
0.00491995
0.00549983
0.00492406
0.00550416
0.00630453
0.00566403
0.00631022
0.00566938
0.00548755
0.00490959
0.00549236
0.00491412
0.00449201
0.00352962
0.00449716
0.00353508
0.00381752
0.00291441
0.00382188
0.00291902
0.00300807
0.00300891
0.00301431
0.00301515
0.00239488
0.00239551
0.00240031
0.00240094
0.00353144
0.00449469
0.00353691
0.00449985
0.0029157
0.0038195
0.00292031
0.00382387
0.005668
0.00631021
0.00567337
0.00631591
0.00491264
0.00549196
0.00491718
0.00549678
0.00629436
0.00565462
0.00630054
0.00566041
0.00547878
0.00490149
0.00548404
0.00490641
0.0044832
0.00352057
0.00448877
0.00352646
0.00380994
0.00290665
0.00381466
0.00291164
0.00299793
0.00299877
0.00300469
0.00300553
0.00238597
0.00238659
0.00239185
0.00239248
0.00352238
0.00448586
0.00352828
0.00449144
0.00290793
0.00381191
0.00291293
0.00381664
0.00565858
0.00630002
0.00566438
0.00630621
0.00490453
0.00548318
0.00490946
0.00548845
0.00628322
0.00564432
0.00628989
0.00565056
0.00546912
0.0048926
0.00547484
0.00489792
0.00447354
0.00351064
0.00447953
0.00351698
0.00380162
0.00289812
0.00380671
0.0029035
0.00298681
0.00298764
0.00299406
0.0029949
0.00237617
0.00237678
0.0023825
0.00238312
0.00351243
0.00447619
0.00351878
0.00448219
0.00289938
0.00380358
0.00290477
0.00380868
0.00564826
0.00628885
0.00565451
0.00629553
0.00489563
0.0054735
0.00490095
0.00547922
0.00627102
0.00563308
0.00627822
0.00563979
0.00545852
0.00488288
0.00546471
0.00488862
0.004463
0.0034998
0.00446944
0.00350659
0.00379252
0.00288878
0.00379801
0.00289456
0.00297466
0.00297548
0.00298243
0.00298326
0.00236543
0.00236603
0.00237223
0.00237284
0.00350157
0.00446563
0.00350838
0.00447208
0.00289003
0.00379446
0.00289582
0.00379996
0.005637
0.00627664
0.00564373
0.00628385
0.00488589
0.00546288
0.00489164
0.00546908
0.00625774
0.00562085
0.00626549
0.00562806
0.00544692
0.00487228
0.00545361
0.00487846
0.00445154
0.00348799
0.00445844
0.00349527
0.00378259
0.00287858
0.0037885
0.0028848
0.00296141
0.00296222
0.00296973
0.00297055
0.00235368
0.00235428
0.00236099
0.00236159
0.00348975
0.00445414
0.00349704
0.00446106
0.00287981
0.00378452
0.00288604
0.00379043
0.00562475
0.00626333
0.00563198
0.00627109
0.00487527
0.00545126
0.00488146
0.00545796
0.0062433
0.00560757
0.00625163
0.00561532
0.00543428
0.00486074
0.0054415
0.0048674
0.00443908
0.00347516
0.00444648
0.00348296
0.0037718
0.00286748
0.00377814
0.00287415
0.00294699
0.00294779
0.0029559
0.00295671
0.00234088
0.00234147
0.00234872
0.00234931
0.0034769
0.00444166
0.00348471
0.00444908
0.0028687
0.0037737
0.00287537
0.00378006
0.00561145
0.00624886
0.0056192
0.00625721
0.00486372
0.0054386
0.00487038
0.00544583
0.00622763
0.00559317
0.00623658
0.00560148
0.00542054
0.00484822
0.00542831
0.00485538
0.00442557
0.00346124
0.00443351
0.00346959
0.00376008
0.00285543
0.00376689
0.00286258
0.00293134
0.00293213
0.00294087
0.00294167
0.00232696
0.00232754
0.00233537
0.00233595
0.00346296
0.00442813
0.00347131
0.00443608
0.00285662
0.00376196
0.00286378
0.00376879
0.00559702
0.00623316
0.00560535
0.00624213
0.00485117
0.00542484
0.00485834
0.00543262
0.00621068
0.00557762
0.00622028
0.0055865
0.00540566
0.00483467
0.00541401
0.00484234
0.00441097
0.00344619
0.00441945
0.0034551
0.00374739
0.00284238
0.00375468
0.00285002
0.00291439
0.00291518
0.00292457
0.00292536
0.00231188
0.00231245
0.00232087
0.00232144
0.00344788
0.0044135
0.0034568
0.004422
0.00284355
0.00374926
0.00285121
0.00375656
0.00558144
0.00621618
0.00559034
0.0062258
0.0048376
0.00540994
0.00484528
0.00541829
0.00619241
0.00556085
0.00620267
0.00557035
0.0053896
0.00482006
0.00539854
0.00482826
0.00439524
0.00342997
0.00440429
0.00343946
0.00373371
0.0028283
0.0037415
0.00283646
0.0028961
0.00289688
0.00290696
0.00290774
0.00229559
0.00229614
0.00230518
0.00230574
0.00343163
0.00439774
0.00344114
0.00440681
0.00282945
0.00373555
0.00283762
0.00374336
0.00556464
0.00619788
0.00557415
0.00620816
0.00482297
0.00539385
0.00483118
0.0054028
0.0061728
0.00554284
0.00618373
0.00555295
0.00537233
0.00480438
0.00538187
0.00481311
0.00437834
0.00341253
0.00438797
0.00342263
0.00371902
0.00281318
0.00372731
0.00282186
0.00287642
0.00287718
0.00288797
0.00288874
0.00227805
0.00227859
0.00228826
0.00228881
0.00341416
0.00438081
0.00342428
0.00439046
0.00281431
0.00372084
0.002823
0.00372915
0.0055466
0.00617823
0.00555673
0.00618917
0.00480726
0.00537655
0.00481601
0.00538611
0.00615183
0.00552365
0.00616344
0.00553436
0.00535383
0.00478758
0.00536399
0.00479688
0.00436026
0.00339385
0.00437048
0.00340457
0.0037033
0.00279699
0.00371211
0.0028062
0.00285531
0.00285606
0.00286757
0.00286833
0.00225924
0.00225977
0.00227009
0.00227062
0.00339546
0.0043627
0.00340619
0.00437294
0.00279809
0.00370509
0.00280731
0.00371392
0.00552737
0.00615722
0.0055381
0.00616885
0.00479044
0.00535802
0.00479975
0.00536819
0.00612945
0.00550317
0.00614176
0.00551452
0.00533408
0.00476966
0.00534486
0.00477951
0.00434098
0.00337393
0.0043518
0.00338526
0.00368652
0.00277971
0.00369586
0.00278946
0.00283276
0.0028335
0.00284574
0.00284648
0.00223914
0.00223965
0.00225062
0.00225115
0.0033755
0.00434338
0.00338685
0.00435422
0.00278078
0.00368829
0.00279054
0.00369764
0.00550685
0.0061348
0.00551823
0.00614714
0.00477248
0.00533824
0.00478236
0.00534904
0.00610568
0.0054814
0.00611868
0.00549339
0.00531312
0.00475063
0.0053245
0.00476103
0.0043205
0.00335277
0.00433191
0.00336471
0.0036687
0.00276136
0.00367855
0.00277163
0.00280878
0.0028095
0.00282246
0.00282319
0.00221776
0.00221826
0.00222987
0.00223038
0.0033543
0.00432287
0.00336627
0.0043343
0.0027624
0.00367044
0.00277269
0.0036803
0.00548505
0.00611099
0.00549706
0.00612401
0.00475343
0.00531725
0.00476384
0.00532865
0.00608057
0.00545841
0.00609423
0.005471
0.00529099
0.00473054
0.00530295
0.00474146
0.00429885
0.00333039
0.00431083
0.00334293
0.00364988
0.00274197
0.00366022
0.00275275
0.00278339
0.00278409
0.00279776
0.00279847
0.00219515
0.00219563
0.00220787
0.00220836
0.00333189
0.00430118
0.00334445
0.00431318
0.00274298
0.00365158
0.00275378
0.00366194
0.00546201
0.00608583
0.00547463
0.00609951
0.00473331
0.00529508
0.00474425
0.00530706
0.00605416
0.00543422
0.00606846
0.0054474
0.00526772
0.00470943
0.00528024
0.00472086
0.00427609
0.00330687
0.00428862
0.00331997
0.0036301
0.00272161
0.00364091
0.00273287
0.00275666
0.00275734
0.00277168
0.00277238
0.00217136
0.00217183
0.00218465
0.00218513
0.00330834
0.00427838
0.00332145
0.00429092
0.00272259
0.00363177
0.00273386
0.0036426
0.00543779
0.00605938
0.00545099
0.0060737
0.00471216
0.00527178
0.00472361
0.00528431
0.00602657
0.00540893
0.00604144
0.00542264
0.00524342
0.00468731
0.00525643
0.00469922
0.00425229
0.00328229
0.00426532
0.0032959
0.00360942
0.00270035