/*--------------------------------*- C++ -*----------------------------------*\
  =========                 |
  \\      /  F ield         | OpenFOAM: The Open Source CFD Toolbox
   \\    /   O peration     | Website:  https://openfoam.org
    \\  /    A nd           | Version:  9
     \\/     M anipulation  |
\*---------------------------------------------------------------------------*/
FoamFile
{
    format      ascii;
    class       volScalarField;
    location    "1";
    object      epsilon;
}
// * * * * * * * * * * * * * * * * * * * * * * * * * * * * * * * * * * * * * //

dimensions      [0 2 -3 0 0 0 0];

internalField   nonuniform List<scalar> 
36360
(
0.442452
0.447897
0.05578
0.0816942
0.0306663
0.0265006
0.00839334
0.00722402
0.0404739
0.00534063
0.00796346
0.00527925
0.00660374
0.0049811
0.00598901
0.00631944
0.00372065
0.00372072
0.00570298
0.00570296
0.00519803
0.00519802
0.00626369
0.00626368
0.00534037
0.0404699
0.00527931
0.00796336
0.00498108
0.00660355
0.00631941
0.00598899
0.447872
0.442424
0.0816918
0.0557774
0.0264981
0.0306637
0.00722396
0.00839327
2.31496
1.78457
1.42516
1.1495
0.872369
0.594775
0.225151
0.182196
0.533116
0.0944594
0.214162
0.0200732
0.115659
0.0113228
0.0214685
0.00528127
0.00831479
0.00831325
0.00334953
0.00334932
0.00403401
0.00403389
0.00439971
0.00439973
0.0944478
0.5331
0.0200701
0.214143
0.0113212
0.115648
0.00528112
0.021466
1.78457
2.31497
1.14946
1.42511
0.594761
0.872347
0.18218
0.225131
3.37008
2.60485
2.93805
2.25984
2.01548
1.38276
1.51584
1.02575
1.02973
0.36222
0.809894
0.236175
0.514652
0.124058
0.316905
0.0442253
0.100262
0.100253
0.0354184
0.0354139
0.0144402
0.014438
0.00543908
0.00543865
0.362215
1.02975
0.236166
0.8099
0.124048
0.514662
0.0442207
0.316902
2.60495
3.37024
2.25988
2.93812
1.38285
2.01565
1.02577
1.51589
3.87895
3.02559
3.6693
2.85059
2.64251
1.85939
2.37987
1.6561
1.31875
0.551028
1.19587
0.467345
0.807783
0.288899
0.679242
0.211017
0.242368
0.242369
0.176065
0.176062
0.0852581
0.0852513
0.0431479
0.0431433
0.551051
1.31884
0.467357
1.19594
0.288901
0.807856
0.211014
0.679285
3.02582
3.8793
2.85076
3.66955
1.85963
2.64293
1.65627
2.38015
4.12187
3.23093
4.02316
3.14711
2.95823
2.10947
2.82857
2.00613
1.46906
0.660419
1.40707
0.614447
0.972665
0.398417
0.90375
0.351599
0.33423
0.334242
0.295081
0.295089
0.160916
0.160914
0.126726
0.126723
0.660479
1.46923
0.614495
1.40721
0.398447
0.972813
0.351618
0.903866
3.23127
4.12238
3.1474
4.02358
2.10987
2.95888
2.00646
2.82908
4.22625
3.32074
4.18578
3.28576
3.10118
2.22383
3.04512
2.179
1.53754
0.712667
1.51075
0.692073
1.05053
0.452355
1.01988
0.431097
0.379373
0.379396
0.361533
0.361552
0.20237
0.202375
0.185889
0.185892
0.71276
1.53777
0.692155
1.51096
0.452413
1.05074
0.431146
1.02007
3.32118
4.22691
3.28616
4.18634
2.22437
3.10204
2.17947
3.04586
4.25919
3.34987
4.24848
3.3402
3.15216
2.26409
3.13452
2.25032
1.56136
0.731552
1.55328
0.725049
1.07865
0.471669
1.06896
0.465085
0.395845
0.395877
0.390153
0.390182
0.2172
0.217211
0.212209
0.212216
0.731676
1.56165
0.725163
1.55355
0.471756
1.07893
0.465158
1.06921
3.3504
4.25996
3.34069
4.24917
2.26473
3.15317
2.25091
3.13542
4.25641
3.34851
4.26017
3.3512
3.15706
2.26714
3.15785
2.26815
1.5629
0.733893
1.56376
0.733974
1.08213
0.474204
1.08216
0.47413
0.398283
0.398326
0.398133
0.398173
0.219064
0.219082
0.219026
0.219041
0.73405
1.56325
0.734121
1.56408
0.474322
1.08248
0.474237
1.08249
3.34898
4.2572
3.35177
4.261
2.26787
3.15818
2.26885
3.1589
4.23403
3.33094
4.24676
3.34095
3.1414
2.25382
3.15169
2.26233
1.55412
0.729319
1.55953
0.732395
1.07546
0.470264
1.08007
0.47306
0.395244
0.395303
0.397403
0.397455
0.216076
0.216107
0.218177
0.218202
0.729533
1.55457
0.732588
1.55995
0.470431
1.07591
0.473204
1.08047
3.33135
4.23476
3.34142
4.24751
2.25471
3.14276
2.26317
3.15291
4.2059
3.30886
4.22
3.3199
3.11806
2.23491
3.12999
2.24454
1.54211
0.72227
1.54819
0.725886
1.06505
0.463986
1.0704
0.467206
0.390131
0.390193
0.392766
0.39283
0.211476
0.211511
0.213829
0.213866
0.722477
1.54245
0.726106
1.5486
0.464157
1.06548
0.467383
1.07084
3.30886
4.20586
3.32001
4.22028
2.23559
3.11916
2.24531
3.13118
4.17679
3.28649
4.19114
3.29736
3.09393
2.21569
3.10594
2.22522
1.53001
0.715118
1.53598
0.718692
1.05444
0.457665
1.05975
0.460843
0.384944
0.385005
0.387551
0.387613
0.2069
0.206933
0.209204
0.209238
0.715304
1.53023
0.718891
1.53628
0.457827
1.05482
0.46101
1.06016
3.287
4.17746
3.29764
4.19127
2.21622
3.09479
2.22583
3.10687
4.14987
3.26616
4.16265
3.27589
3.07033
2.19704
3.08196
2.20624
1.51835
0.7082
1.52408
0.71165
1.0441
0.451494
1.04926
0.454601
0.379898
0.379967
0.382436
0.382502
0.202437
0.202472
0.20469
0.204725
0.708426
1.5187
0.711857
1.52435
0.451667
1.04452
0.45477
1.04967
3.26593
4.14974
3.27607
4.16322
2.19766
3.07133
2.20679
3.08288
4.12249
3.24568
4.13561
3.25527
3.04735
2.1789
3.05868
2.18778
1.50714
0.701462
1.51263
0.704824
1.03396
0.44539
1.03902
0.448471
0.374922
0.375
0.377433
0.377512
0.198018
0.198054
0.200257
0.200294
0.701744
1.50766
0.705096
1.51311
0.445579
1.03449
0.44866
1.03952
3.24621
4.12321
3.25572
4.13605
2.17988
3.04857
2.18861
3.0597
4.09583
3.22626
4.10874
3.23555
3.02425
2.16095
3.03575
2.16987
1.49611
0.694786
1.50159
0.698152
1.02388
0.439265
1.02896
0.442372
0.369931
0.369988
0.372463
0.372535
0.193584
0.193613
0.195835
0.19587
0.695
1.49654
0.69842
1.50214
0.439416
1.02431
0.44255
1.02948
3.22663
4.09671
3.23614
4.10958
2.16183
3.02576
2.17091
3.03726
4.0694
3.20682
4.08239
3.21637
3.00104
2.14278
3.01259
2.15178
1.48499
0.688016
1.49051
0.69142
1.01361
0.433049
1.01877
0.436196
0.364872
0.364909
0.367435
0.367484
0.189113
0.189132
0.191381
0.191407
0.688135
1.48508
0.691598
1.49079
0.433158
1.01389
0.436333
1.01915
3.20575
4.06816
3.21576
4.08206
2.14311
3.00176
2.15242
3.01365
4.04074
3.18618
4.05446
3.19593
2.97712
2.12418
2.98909
2.13355
1.47367
0.681167
1.47933
0.684635
1.00319
0.426759
1.00848
0.429953
0.359753
0.359768
0.362353
0.362379
0.184605
0.184607
0.186894
0.186905
0.681195
1.47351
0.684707
1.47929
0.426808
1.00331
0.430032
1.00866
3.18512
4.03961
3.19515
4.05353
2.12416
2.97752
2.13362
2.98965
4.01067
3.16494
4.02514
3.17494
2.95224
2.10465
2.96478
2.11447
1.46184
0.674075
1.46779
0.677676
0.992348
0.420295
0.997849
0.423585
0.354503
0.354505
0.357175
0.357184
0.180017
0.180004
0.182351
0.182346
0.674085
1.46175
0.677681
1.46758
0.420297
0.992415
0.423613
0.997931
3.1642
4.00994
3.17388
4.0239
2.10467
2.95227
2.11434
2.96473
3.97967
3.14291
3.99492
3.15361
2.92534
2.08393
2.93863
2.0941
1.44939
0.666695
1.45552
0.670417
0.981003
0.413581
0.986721
0.416997
0.349066
0.349073
0.351832
0.351839
0.175309
0.175293
0.177705
0.177691
0.666751
1.44961
0.670478
1.45573
0.413585
0.981154
0.417002
0.98687
3.14252
3.97982
3.15324
3.99471
2.08453
2.92648
2.09466
2.9394
3.94809
3.12063
3.96411
3.13187
2.89892
2.06337
2.91223
2.0738
1.43702
0.659136
1.44328
0.662974
0.96935
0.406639
0.975269
0.410169
0.343458
0.343469
0.34631
0.34632
0.170482
0.170469
0.172935
0.172921
0.659168
1.43691
0.663006
1.44315
0.406654
0.969482
0.410179
0.975389
3.11976
3.9463
3.12953
3.96131
2.0635
2.89916
2.07382
2.91258
3.91412
3.09697
3.93051
3.10834
2.87039
2.04121
2.88463
2.05224
1.42373
0.651257
1.43037
0.655241
0.957156
0.399475
0.963316
0.403109
0.337681
0.337696
0.340613
0.340629
0.165558
0.16555
0.168054
0.168044
0.651281
1.42367
0.655289
1.43042
0.399505
0.957271
0.403135
0.963468
3.09691
3.91412
3.10869
3.93072
2.04127
2.87068
2.05256
2.8851
3.87728
3.07155
3.89507
3.08349
2.84029
2.01798
2.85525
2.02942
1.40993
0.643146
1.41675
0.647228
0.944544
0.392138
0.950883
0.395848
0.331771
0.331793
0.334763
0.334783
0.160569
0.160567
0.163092
0.163088
0.643198
1.40997
0.647267
1.41671
0.39219
0.944716
0.395894
0.951028
3.0723
3.87818
3.08381
3.89531
2.01827
2.84074
2.02954
2.85548
3.84151
3.04702
3.85936
3.05921
2.81016
1.99484
2.82527
2.00644
1.39622
0.634962
1.40308
0.639083
0.931789
0.384704
0.938211
0.388457
0.325779
0.325796
0.328808
0.328831
0.15555
0.155549
0.158085
0.158085
0.635005
1.39631
0.639146
1.40319
0.384748
0.931943
0.388514
0.938395
3.04801
3.84288
3.06023
3.86069
1.99523
2.8108
2.00683
2.82583
3.80481
3.02249
3.82246
3.0341
2.77956
1.97142
2.79478
1.98307
1.38244
0.626699
1.38928
0.63086
0.918857
0.377168
0.925372
0.380979
0.319708
0.319704
0.32278
0.322788
0.150497
0.150493
0.153053
0.153051
0.62666
1.38234
0.630868
1.38929
0.377177
0.918867
0.381008
0.925452
3.0232
3.80599
3.03508
3.82381
1.97143
2.77979
1.98326
2.7952
3.76827
2.99826
3.78575
3.00972
2.74788
1.94712
2.7637
1.95922
1.36829
0.618183
1.37536
0.622499
0.905458
0.369397
0.912241
0.373347
0.313454
0.313449
0.316635
0.31663
0.145335
0.14533
0.147957
0.147953
0.618141
1.36816
0.622449
1.37523
0.369405
0.905475
0.373353
0.912233
2.9981
3.76855
3.01018
3.78679
1.94715
2.74809
1.95917
2.76381
3.72815
2.97075
3.74864
2.98472
2.7139
1.92087
2.73127
1.93429
1.35291
0.609084
1.36079
0.613746
0.891136
0.361181
0.898468
0.365382
0.30684
0.306849
0.310226
0.310229
0.139942
0.139939
0.142694
0.142691
0.609116
1.35298
0.613747
1.36076
0.361212
0.891276
0.365405
0.898556
2.97084
3.72839
2.98459
3.74867
1.92123
2.71452
1.9345
2.73164
3.68308
2.93982
3.70559
2.95518
2.67668
1.89211
2.69553
1.90666
1.33598
0.599235
1.34457
0.604262
0.875649
0.352395
0.883542
0.356881
0.299755
0.299771
0.303378
0.303394
0.13425
0.134247
0.137152
0.13715
0.599308
1.33618
0.604328
1.34473
0.352435
0.875842
0.356922
0.883724
2.94019
3.68366
2.95546
3.70602
1.89263
2.67753
1.90712
2.69626
3.63545
2.90703
3.65909
2.92323
2.63734
1.86182
2.65714
1.87703
1.318
0.588776
1.32707
0.594086
0.859253
0.343111
0.867563
0.347829
0.292241
0.292257
0.296066
0.296084
0.128294
0.128289
0.131317
0.131314
0.588854
1.31822
0.594171
1.32729
0.343148
0.859448
0.347871
0.867767
2.90746
3.63612
2.92365
3.65971
1.86236
2.63824
1.87756
2.658
3.58613
2.8729
3.61054
2.88971
2.59652
1.83055
2.617
1.84622
1.29927
0.577876
1.30868
0.583386
0.842198
0.33347
0.850811
0.338347
0.284413
0.284426
0.288379
0.288395
0.122175
0.122168
0.125265
0.12526
0.577949
1.29948
0.583469
1.30891
0.3335
0.842383
0.338383
0.851009
2.87333
3.58679
2.89015
3.61119
1.83107
2.5974
1.84676
2.61786
3.53564
2.83788
3.56058
2.85509
2.55464
1.79843
2.5756
1.8145
1.28003
0.566686
1.28967
0.572324
0.82468
0.323609
0.8335
0.328579
0.276385
0.276396
0.280437
0.280451
0.115998
0.11599
0.119103
0.119097
0.566753
1.28023
0.5724
1.28989
0.323634
0.824855
0.328609
0.833687
2.8383
3.53629
2.85552
3.56122
1.79894
2.5555
1.81502
2.57645
3.48438
2.80226
3.50967
2.81975
2.51208
1.76574
2.53334
1.78207
1.26045
0.555322
1.27024
0.561034
0.806871
0.313645
0.815817
0.318653
0.268255
0.268264
0.272347
0.272359
0.109848
0.109839
0.11293
0.112922
0.555384
1.26065
0.561105
1.27046
0.313666
0.807038
0.318679
0.815994
2.80266
3.48502
2.82017
3.51029
1.76623
2.51292
1.78257
2.53417
3.43265
2.76623
3.45814
2.7839
2.46911
1.73273
2.49054
1.74919
1.24067
0.543873
1.25055
0.549618
0.788912
0.303666
0.797918
0.308671
0.260096
0.260103
0.264194
0.264204
0.103792
0.103782
0.106819
0.10681
0.543931
1.24085
0.549684
1.25075
0.303683
0.789071
0.308693
0.798086
2.76662
3.43327
2.78431
3.45875
1.7332
2.46994
1.74967
2.49135
3.38067
2.72991
3.40627
2.74772
2.42593
1.69954
2.44746
1.71607
1.22075
0.532401
1.23069
0.538151
0.770897
0.293737
0.779921
0.298709
0.251963
0.251969
0.256042
0.25605
0.097878
0.0978674
0.100828
0.100818
0.532455
1.22093
0.538214
1.23089
0.293751
0.771049
0.298728
0.780082
2.73029
3.38128
2.74811
3.40686
1.7
2.42674
1.71655
2.44825
3.32855
2.69334
3.35423
2.71129
2.38255
1.6662
2.4042
1.68283
1.20071
0.520919
1.21072
0.526677
0.752847
0.283891
0.761893
0.28882
0.243882
0.243887
0.247934
0.247941
0.0921373
0.092126
0.094997
0.0949868
0.520969
1.20089
0.526736
1.21091
0.283902
0.752992
0.288835
0.762047
2.69371
3.32914
2.71167
3.35481
1.66665
2.38334
1.68329
2.40498
3.27596
2.65621
3.30195
2.6745
2.33848
1.63234
2.36058
1.64931
1.18034
0.509327
1.19057
0.515164
0.734604
0.274082
0.743784
0.279005
0.235811
0.235814
0.239869
0.239875
0.0865665
0.0865546
0.0893442
0.0893333
0.509373
1.18051
0.515218
1.19075
0.27409
0.734742
0.279017
0.743931
2.65657
3.27655
2.67487
3.30252
1.63278
2.33925
1.64975
2.36134
3.2218
2.6176
3.2488
2.63681
2.29218
1.59686
2.31569
1.61485
1.159
0.497255
1.16984
0.503404
0.715597
0.264079
0.72527
0.269146
0.227537
0.227539
0.23174
0.231744
0.0810803
0.0810678
0.0838339
0.0838225
0.497298
1.15916
0.503455
1.17001
0.264084
0.715728
0.269155
0.72541
2.61795
3.22237
2.63717
3.24936
1.59728
2.29293
1.61528
2.31643
3.16306
2.57509
3.19291
2.5967
2.23984
1.55713
2.26705
1.5777
1.13502
0.483724
1.14748
0.490783
0.69435
0.253211
0.705409
0.258835
0.218448
0.218449
0.223172
0.223175
0.0753974
0.0753846
0.0783024
0.0782905
0.483763
1.13518
0.49083
1.14765
0.253213
0.694473
0.258841
0.705542
2.57542
3.16361
2.59705
3.19345
1.55753
2.24056
1.57811
2.26777
3.09249
2.52265
3.1296
2.55039
2.17334
1.50785
2.20903
1.53409
1.10438
0.466417
1.12093
0.475783
0.667556
0.239899
0.68197
0.247022
0.207113
0.207112
0.21321
0.213211
0.0688387
0.0688257
0.0722988
0.0722867
0.466453
1.10453
0.475826
1.12109
0.239899
0.667673
0.247026
0.682095
2.52297
3.09302
2.55072
3.13012
1.50824
2.17404
1.53449
2.20972
2.9922
2.44034
3.04744
2.48747
2.07682
1.43782
2.13011
1.47654
1.05569
0.439907
1.0836
0.454861
0.628083
0.221005
0.650095
0.23142
0.190764
0.190761
0.1998
0.1998
0.0601986
0.0601854
0.0648693
0.0648571
0.439939
1.05583
0.454901
1.08376
0.221001
0.628192
0.231421
0.650214
2.44065
2.99272
2.4878
3.04795
1.4382
2.0775
1.47693
2.13078
2.82003
2.21939
2.91983
2.36508
1.91475
1.29588
2.00882
1.3841
0.950529
0.393283
1.01459
0.41987
0.560115
0.192572
0.599138
0.20811
0.166376
0.166364
0.179611
0.179607
0.048721
0.048705
0.0547639
0.0547506
0.393294
0.950646
0.419901
1.01473
0.192554
0.560202
0.208105
0.599245
2.21967
2.82058
2.3654
2.92034
1.29624
1.91546
1.38448
2.00949
0.734209
0.67008
0.0824206
0.103091
0.624731
0.575958
0.0716766
0.0879078
0.085009
0.00805283
0.00911813
0.00530584
0.0638715
0.0066067
0.0084032
0.00532938
0.00359368
0.00359363
0.00580974
0.00580974
0.00359968
0.00359966
0.00586864
0.00586862
0.00805163
0.0849956
0.0053058
0.00911764
0.00660612
0.0638628
0.00532936
0.00840293
0.670025
0.734157
0.103083
0.0824133
0.575915
0.624686
0.0879021
0.0716712
3.22805
2.47698
2.15239
1.66682
2.9058
2.22621
1.89636
1.47945
0.916396
0.250387
0.431686
0.0622134
0.769561
0.183806
0.34343
0.041969
0.0359691
0.0359608
0.00581058
0.00580949
0.0213732
0.0213692
0.00447853
0.00447811
0.250357
0.91637
0.062201
0.431647
0.183787
0.769544
0.0419621
0.343402
2.47698
3.2281
1.66677
2.15233
2.22621
2.90582
1.4794
1.8963
4.46495
3.48576
3.96325
3.06627
4.06131
3.15595
3.59311
2.76947
1.61556
0.692309
1.31199
0.488192
1.38646
0.55556
1.11861
0.384698
0.291892
0.291881
0.136347
0.136332
0.205809
0.205801
0.0863018
0.0862933
0.692307
1.61562
0.488177
1.31201
0.555561
1.38651
0.38469
1.11863
3.48592
4.46524
3.06635
3.96341
3.15608
4.06152
2.76954
3.59321
5.04577
3.9893
4.80797
3.7807
4.60302
3.61922
4.38119
3.42744
2.0093
0.989537
1.84212
0.858865
1.73203
0.80308
1.58565
0.694367
0.548049
0.548062
0.432563
0.432566
0.410791
0.410799
0.317753
0.317755
0.989601
2.00948
0.858902
1.84224
0.803129
1.73217
0.694397
1.58576
3.98964
5.04629
3.78095
4.80835
3.6195
4.60343
3.42765
4.38148
5.31691
4.23264
5.20725
4.13341
4.85632
3.84233
4.75382
3.75145
2.21496
1.15952
2.1298
1.08797
1.91077
0.943836
1.83698
0.88474
0.702919
0.702956
0.637223
0.637251
0.535823
0.535849
0.482844
0.482863
1.15965
2.21525
1.08808
2.13004
0.943939
1.91101
0.884824
1.83719
4.23314
5.31764
4.13383
5.20785
3.84275
4.85691
3.7518
4.75429
5.43095
4.33826
5.38695
4.2971
4.96311
3.93877
4.92186
3.90122
2.31038
1.24232
2.27272
1.20933
1.99265
1.0115
1.96045
0.984663
0.77991
0.779965
0.749116
0.749165
0.597257
0.597298
0.572814
0.57285
1.24251
2.31077
1.2095
2.27308
1.01165
1.99296
0.984797
1.96074
4.33889
5.43185
4.29767
5.38773
3.9393
4.96384
3.9017
4.92249
5.46444
4.37161
5.45408
4.36075
4.99485
3.96914
4.98491
3.95922
2.34475
1.27395
2.3329
1.26275
2.02157
1.03671
2.01168
1.02788
0.809931
0.809993
0.799184
0.799247
0.620538
0.620588
0.612309
0.612358
1.27416
2.34517
1.26296
2.33332
1.03688
2.02193
1.02805
2.01203
4.37228
5.4654
4.36141
5.45498
3.96973
4.99567
3.95979
4.98565
5.45644
4.36716
5.46363
4.37217
4.9883
3.96543
4.99434
3.96965
2.34742
1.27897
2.34865
1.2787
2.02337
1.04026
2.02455
1.04022
0.815712
0.815778
0.814866
0.814931
0.624569
0.624625
0.624106
0.624161
1.27921
2.34792
1.27892
2.3491
1.04046
2.02382
1.04041
2.02495
4.36777
5.45754
4.37293
5.46474
3.96614
4.9893
3.9703
4.9952
5.42314
4.34128
5.44166
4.35577
4.95909
3.94247
4.97544
3.95541
2.33456
1.27228
2.34252
1.27691
2.01212
1.03445
2.01897
1.03838
0.811352
0.811441
0.814582
0.814658
0.620776
0.62085
0.623513
0.623578
1.27263
2.33534
1.27719
2.34315
1.03473
2.01279
1.03862
2.01954
4.34185
5.42426
4.35629
5.44265
3.94383
4.9606
3.95629
4.97651
5.38503
4.31086
5.40387
4.32608
4.92474
3.91549
4.9414
3.92863
2.31652
1.26093
2.3257
1.26683
1.99694
1.02515
2.00459
1.02993
0.802757
0.802877
0.80728
0.807388
0.613847
0.613936
0.617443
0.617529
1.2614
2.31759
1.26726
2.32662
1.02549
1.99774
1.03026
2.00535
4.31239
5.38658
4.32649
5.40439
3.91792
4.92759
3.93063
4.9436
5.34525
4.27951
5.36407
4.29427
4.8893
3.88818
4.90627
3.90105
2.29803
1.24918
2.30712
1.25505
1.98127
1.01557
1.989
1.02035
0.793764
0.79391
0.798305
0.798442
0.606691
0.606788
0.610283
0.610378
1.24975
2.29951
1.25559
2.3084
1.01591
1.98202
1.02069
1.98977
4.28331
5.34951
4.29676
5.3667
3.89028
4.89231
3.90356
4.9094
5.30806
4.25088
5.32543
4.26402
4.85833
3.86417
4.87284
3.87551
2.28089
1.23802
2.2892
1.24358
1.9666
1.00637
1.97367
1.01093
0.785079
0.785237
0.789458
0.789612
0.59975
0.599873
0.603227
0.603339
1.2386
2.28241
1.24418
2.29086
1.00679
1.96743
1.01132
1.97456
4.25493
5.31373
4.26882
5.33142
3.86494
4.85948
3.87701
4.87518
5.27586
4.22573
5.2913
4.23802
4.82683
3.84003
4.84198
3.8515
2.26452
1.22714
2.27272
1.23261
1.95257
0.997472
1.95948
1.00191
0.776575
0.776734
0.780883
0.78105
0.592959
0.593085
0.596376
0.596509
1.22772
2.26573
1.23321
2.27395
0.997917
1.95336
1.00236
1.96024
4.22759
5.27791
4.24038
5.29469
3.84105
4.82792
3.8522
4.84267
5.23778
4.19699
5.25581
4.21014
4.79464
3.81613
4.80983
3.82725
2.24759
1.21627
2.25593
1.22176
1.93849
0.988645
1.94547
0.993089
0.768108
0.768231
0.772415
0.77256
0.586181
0.586266
0.589612
0.58972
1.21683
2.24933
1.22235
2.25758
0.988986
1.93925
0.993498
1.94634
4.20112
5.24365
4.21412
5.26045
3.81677
4.79598
3.82872
4.81179
5.20467
4.17156
5.22096
4.1843
4.76281
3.79202
4.7786
3.80397
2.23129
1.20546
2.23945
1.21092
1.9243
0.979707
1.93136
0.984203
0.759615
0.759703
0.763936
0.764043
0.579327
0.579387
0.582793
0.582866
1.20583
2.23215
1.2114
2.24076
0.979942
1.9248
0.984495
1.932
4.17167
5.205
4.1862
5.22434
3.79175
4.76248
3.80386
4.77875
5.16538
4.14186
5.18515
4.15644
4.72858
3.7672
4.7446
3.77859
2.21435
1.19444
2.22288
1.20004
1.90991
0.970649
1.91703
0.975212
0.751004
0.751065
0.755399
0.755475
0.572391
0.572427
0.575905
0.575957
1.19465
2.21472
1.20033
2.22345
0.970762
1.90998
0.975402
1.91736
4.1434
5.16697
4.15699
5.18506
3.76621
4.72768
3.77833
4.7443
5.12612
4.11279
5.14542
4.12718
4.69376
3.7413
4.71171
3.75459
2.19665
1.18304
2.2056
1.18885
1.89492
0.961288
1.9025
0.966039
0.742187
0.742257
0.746694
0.746757
0.565278
0.56531
0.568894
0.568924
1.18333
2.19729
1.18907
2.20597
0.961396
1.89507
0.966115
1.90239
4.11427
5.12773
4.12822
5.14681
3.74115
4.69291
3.75267
4.70913
5.08489
4.08229
5.1045
4.09672
4.65625
3.71439
4.6744
3.72726
2.17836
1.17131
2.18741
1.17724
1.87942
0.951594
1.88709
0.956481
0.733115
0.733192
0.737747
0.737829
0.55793
0.557971
0.561663
0.561705
1.17166
2.17949
1.17762
2.1885
0.951758
1.87983
0.956662
1.88757
4.08549
5.08901
4.0998
5.10808
3.7161
4.6583
3.72851
4.67547
5.04305
4.05218
5.06285
4.06609
4.62023
3.68844
4.63746
3.70097
2.16016
1.15936
2.16922
1.16543
1.86369
0.94165
1.87154
0.946675
0.723801
0.723856
0.728555
0.728625
0.550364
0.550398
0.554203
0.554243
1.15956
2.16063
1.16572
2.17015
0.941739
1.86372
0.946814
1.8718
4.05322
5.04522
4.06902
5.06696
3.68844
4.62043
3.7021
4.6391
5.00139
4.0216
5.02256
4.03721
4.57844
3.65884
4.59855
3.67261
2.14107
1.14698
2.1508
1.15329
1.84698
0.931329
1.8553
0.936545
0.714237
0.71427
0.719117
0.71916
0.542582
0.542616
0.546527
0.546563
1.14704
2.14095
1.1534
2.15084
0.931405
1.84693
0.936634
1.85534
4.02047
5.00004
4.03643
5.02206
3.65828
4.57825
3.67288
4.59907
4.9547
3.98779
4.97739
4.0041
4.53863
3.63089
4.55792
3.64446
2.12082
1.13413
2.13098
1.14065
1.82991
0.920724
1.83844
0.92607
0.704421
0.704457
0.70942
0.709457
0.534613
0.534649
0.538646
0.538683
1.13423
2.12088
1.14074
2.13098
0.920793
1.82972
0.926149
1.83832
3.98718
4.95417
4.00335
4.97643
3.62898
4.53691
3.64329
4.55693
4.90644
3.95306
4.92998
3.96983
4.49603
3.60071
4.51701
3.61538
2.10016
1.12102
2.11048
1.12765
1.81237
0.909909
1.82111
0.915348
0.694418
0.694444
0.699501
0.699536
0.526502
0.526532
0.530599
0.530636
1.12106
2.09991
1.12773
2.1104
0.90996
1.81203
0.915422
1.82085
3.95058
4.90387
3.96849
4.92882
3.59747
4.49243
3.61262
4.51413
4.85719
3.91791
4.88112
3.93483
4.45205
3.57012
4.47329
3.5847
2.07929
1.10777
2.08965
1.11445
1.79477
0.899006
1.80345
0.904474
0.684273
0.684296
0.689424
0.68945
0.518281
0.518293
0.522433
0.522457
1.10783
2.07931
1.1145
2.08947
0.899007
1.79441
0.904508
1.8031
3.91587
4.85451
3.93213
4.87787
3.56675
4.4482
3.58126
4.46932
4.80761
3.88281
4.83181
3.89982
4.40782
3.53948
4.42949
3.5544
2.05833
1.09427
2.06882
1.10113
1.77696
0.887851
1.78589
0.893502
0.673864
0.673888
0.679181
0.679206
0.509827
0.509833
0.514124
0.514133
1.09436
2.05855
1.10121
2.06898
0.88784
1.77668
0.893494
1.78554
3.88272
4.80713
3.8985
4.8297
3.53669
4.40414
3.55093
4.4253
4.75487
3.84517
4.78134
3.86402
4.35957
3.50574
4.3838
3.52261
2.0359
1.0799
2.04738
1.08729
1.75758
0.875905
1.76747
0.882021
0.662832
0.662869
0.668507
0.668538
0.500863
0.500884
0.50545
0.505465
1.08001
2.03615
1.08739
2.04763
0.875963
1.75763
0.882044
1.76732
3.84556
4.75543
3.86423
4.78151
3.50522
4.35853
3.52069
4.38096
4.6966
3.80327
4.72572
3.82415
4.30656
3.46856
4.33295
3.48698
2.01117
1.06428
2.02376
1.07228
1.73632
0.86295
1.7471
0.86956
0.650959
0.65101
0.657059
0.657106
0.491229
0.491264
0.496155
0.496186
1.06445
2.01151
1.07244
2.02406
0.863071
1.73658
0.869664
1.74729
3.80379
4.69739
3.82461
4.72638
3.46895
4.30711
3.48711
4.33299
4.63487
3.75875
4.66546
3.78073
4.25053
3.42916
4.27826
3.44859
1.98485
1.04766
1.99814
1.05612
1.71373
0.849171
1.72511
0.856163
0.638319
0.638373
0.644781
0.644838
0.480983
0.481019
0.486198
0.486237
1.04784
1.98523
1.05631
1.99852
0.849307
1.71403
0.856305
1.72542
3.75935
4.63576
3.78131
4.66628
3.42966
4.25126
3.44907
4.27892
4.57095
3.71281
4.60257
3.73544
4.1926
3.38815
4.22118
3.40832
1.95749
1.03031
1.97126
1.03911
1.6902
0.834789
1.70201
0.842057
0.625087
0.625138
0.631821
0.631877
0.470269
0.470303
0.475698
0.475735
1.03049
1.95787
1.0393
1.97166
0.83492
1.69049
0.8422
1.70233
3.71341
4.57185
3.73606
4.60343
3.38865
4.19334
3.40884
4.22189
4.5054
3.66562
4.53776
3.68885
4.13334
3.3461
4.16254
3.36673
1.92934
1.01243
1.94348
1.02147
1.66601
0.819994
1.67812
0.827447
0.611435
0.611483
0.618358
0.618409
0.459238
0.459269
0.464808
0.464842
1.0126
1.9297
1.02165
1.94386
0.820116
1.6663
0.827583
1.67843
3.66621
4.50628
3.68945
4.53861
3.34659
4.13407
3.36724
4.16324
4.43876
3.61752
4.47162
3.64117
4.07315
3.30334
4.10278
3.32431
1.90063
0.994199
1.91503
1.00339
1.64139
0.804931
1.6537
0.812502
0.597512
0.597556
0.604553
0.6046
0.448014
0.448042
0.453666
0.453697
0.99436
1.90099
1.00357
1.9154
0.805047
1.64166
0.812629
1.65399
3.61809
4.43961
3.64175
4.47245
3.30382
4.07386
3.3248
4.10346
4.37143
3.56879
4.40459
3.59273
4.01236
3.26007
4.04226
3.28127
1.87155
0.975748
1.88612
0.98504
1.61646
0.789713
1.62891
0.797349
0.583434
0.583475
0.590538
0.590583
0.436693
0.436719
0.442382
0.442411
0.975902
1.87189
0.985205
1.88647
0.789822
1.61673
0.79747
1.62919
3.56934
4.37226
3.5933
4.4054
3.26053
4.01305
3.28175
4.04292
4.30369
3.51961
4.33704
3.54377
3.95123
3.21643
3.98128
3.2378
1.84221
0.957158
1.8569
0.966513
1.59134
0.774411
1.60388
0.782083
0.569276
0.569315
0.576413
0.576455
0.425342
0.425366
0.431039
0.431066
0.957305
1.84253
0.966671
1.85724
0.774515
1.5916
0.782198
1.60416
3.52015
4.30451
3.54432
4.33783
3.21687
3.95191
3.23827
3.98193
4.23567
3.47
4.26917
3.49439
3.8899
3.17245
3.92006
3.19401
1.81255
0.93841
1.82742
0.947856
1.566
0.759025
1.57866
0.766747
0.555037
0.555073
0.56222
0.56226
0.413977
0.413999
0.419684
0.419709
0.93855
1.81287
0.948006
1.82775
0.759124
1.56625
0.766856
1.57893
3.47052
4.23646
3.49492
4.26995
3.17288
3.89056
3.19446
3.9207
4.167
3.41958
4.20092
3.44446
3.82803
3.1278
3.85854
3.14977
1.78224
0.919241
1.79751
0.928952
1.54017
0.743375
1.55314
0.751269
0.54053
0.540564
0.547888
0.547925
0.402488
0.402508
0.408283
0.408305
0.919374
1.78254
0.929096
1.79783
0.743469
1.54041
0.751373
1.5534
3.42008
4.16778
3.44498
4.20167
3.12822
3.82868
3.15021
3.85916
4.09639
3.36714
4.13155
3.39326
3.76448
3.08143
3.79607
3.10447
1.75016
0.898843
1.76652
0.909322
1.51296
0.72687
1.52679
0.735306
0.525133
0.525164
0.533055
0.53309
0.390459
0.390477
0.396605
0.396626
0.898969
1.75045
0.909458
1.76683
0.726958
1.51319
0.735404
1.52703
3.36762
4.09715
3.39376
4.13228
3.08184
3.76511
3.10489
3.79668
4.02015
3.3094
4.05883
3.3388
3.69596
3.03051
3.73066
3.05636
1.71357
0.875206
1.7327
0.887667
1.48213
0.707989
1.49818
0.71789
0.507286
0.507315
0.51671
0.516742
0.37679
0.376806
0.383956
0.383975
0.875324
1.71385
0.887796
1.733
0.708071
1.48235
0.717983
1.49842
3.30986
4.02088
3.33928
4.05954
3.0309
3.69657
3.05677
3.73125
3.92838
3.23726
3.97676
3.2757
3.61387
2.96732
3.65702
3.00086
1.66555
0.843742
1.69171
0.860935
1.44206
0.683175
1.46382
0.696686
0.483712
0.483738
0.496547
0.496575
0.359053
0.359066
0.368668
0.368684
0.843852
1.66582
0.861056
1.692
0.683252
1.44228
0.696773
1.46404
3.23771
3.92908
3.27616
3.97744
2.9677
3.61446
3.00126
3.65759
3.79402
3.11927
3.86878
3.18754
3.49466
2.86475
3.56083
2.92401
1.58648
0.794347
1.6321
0.822263
1.37641
0.644256
1.41429
0.666279
0.44884
0.448861
0.468127
0.468152
0.332855
0.332865
0.347361
0.347375
0.794447
1.58674
0.822376
1.63237
0.644326
1.37662
0.66636
1.41451
3.11969
3.79471
3.18798
3.86944
2.86512
3.49524
2.92439
3.56139
3.55163
2.80644
3.69335
3.00998
3.27878
2.58689
3.40547
2.76908
1.41994
0.710611
1.5198
0.75756
1.23471
0.576542
1.3204
0.614831
0.398485
0.398494
0.425433
0.425451
0.294218
0.294216
0.315031
0.315039
0.710683
1.42016
0.757657
1.52006
0.576585
1.23488
0.614898
1.32061
2.80682
3.55234
3.01041
3.69401
2.58722
3.27938
2.76944
3.40603
0.824383
0.740781
0.091502
0.111339
0.793127
0.71283
0.088393
0.106429
0.102524
0.00952517
0.00961702
0.0053503
0.095408
0.00891875
0.00935993
0.00535741
0.00366865
0.00366854
0.005823
0.00582301
0.0036625
0.00366242
0.00585064
0.00585065
0.00952315
0.102505
0.00535025
0.00961628
0.00891725
0.0953927
0.00535737
0.00935934
0.740716
0.824324
0.111328
0.091493
0.712771
0.793069
0.10642
0.0883845
3.50403
2.69677
2.36219
1.8239
3.40451
2.61625
2.28897
1.76726
1.05387
0.316848
0.509933
0.0825969
1.003
0.291766
0.480939
0.0746548
0.0543237
0.0543102
0.0076001
0.00759801
0.0469136
0.0469042
0.00686537
0.00686395
0.316808
1.05384
0.0825785
0.509885
0.291737
1.00298
0.0746411
0.4809
2.69679
3.50413
1.82385
2.36215
2.61627
3.40458
1.76721
2.28891
4.83697
3.79717
4.29281
3.33686
4.69782
3.67966
4.17139
3.23611
1.84506
0.8404
1.49933
0.595837
1.7576
0.782788
1.42895
0.554646
0.395055
0.395046
0.196839
0.19682
0.353851
0.353844
0.172804
0.17279
0.840409
1.84515
0.595821
1.49936
0.7828
1.75769
0.554639
1.42899
3.7974
4.83737
3.33698
4.29303
3.67987
4.69814
3.23623
4.17157
5.47523
4.35775
5.21267
4.12422
5.31122
4.21587
5.05949
3.99312
2.30203
1.2029
2.10655
1.04261
2.18799
1.1179
2.00453
0.970149
0.717751
0.717777
0.572203
0.572214
0.648674
0.648696
0.515855
0.515866
1.20301
2.30228
1.04267
2.10674
1.11799
2.18822
0.97021
2.0047
4.3582
5.47592
4.12456
5.21318
4.21627
5.3118
3.99343
5.05991
5.77771
4.63377
5.65486
4.52061
5.59952
4.47732
5.48267
4.3704
2.54675
1.4147
2.4447
1.32497
2.41568
1.31156
2.32103
1.22976
0.915083
0.915143
0.830901
0.830947
0.827613
0.827664
0.751483
0.751523
1.4149
2.54717
1.32514
2.44505
1.31174
2.41605
1.22991
2.32134
4.63443
5.77865
4.52117
5.65564
4.47791
5.60032
4.3709
5.48333
5.90698
4.7561
5.85684
4.70811
5.7216
4.59195
5.67435
4.5471
2.66334
1.52061
2.61693
1.47801
2.52279
1.40721
2.48029
1.36888
1.01571
1.0158
0.975077
0.975154
0.917763
0.917836
0.881497
0.881563
1.52089
2.66388
1.47826
2.61742
1.40745
2.52327
1.3691
2.48073
4.75692
5.90813
4.70886
5.85785
4.59268
5.72257
4.54777
5.6752
5.94614
4.79624
5.93379
4.78289
5.75786
4.62881
5.74653
4.61665
2.70714
1.56282
2.69172
1.54756
2.56225
1.4446
2.54846
1.43118
1.05667
1.05676
1.04171
1.04181
0.953757
0.95384
0.940706
0.940789
1.56314
2.70775
1.54787
2.69231
1.44487
2.56277
1.43145
2.54898
4.79715
5.9474
4.78376
5.93495
4.6296
5.75892
4.61742
5.7475
5.93896
4.79344
5.94582
4.79792
5.75012
4.62522
5.75712
4.62985
2.71222
1.5709
2.71295
1.56985
2.5661
1.45121
2.56709
1.45053
1.06577
1.06588
1.064
1.06411
0.961281
0.961368
0.959944
0.96003
1.5713
2.71305
1.5702
2.71364
1.45152
2.56677
1.45082
2.56767
4.79446
5.9406
4.79895
5.94728
4.62579
5.75131
4.63072
5.75838
5.90482
4.76693
5.92379
4.78196
5.71649
4.59897
5.73508
4.61374
2.6983
1.56353
2.70721
1.56882
2.55246
1.44403
2.56101
1.44906
1.06097
1.06112
1.06471
1.06483
0.956599
0.956707
0.960128
0.960225
1.5641
2.69965
1.5693
2.70833
1.44446
2.55346
1.44944
2.56187
4.76801
5.90661
4.7832
5.92579
4.59885
5.71668
4.61409
5.73607
5.86255
4.73297
5.88336
4.74977
5.67469
4.56551
5.69525
4.58197
2.67708
1.54956
2.688
1.55692
2.53245
1.43115
2.54262
1.43786
1.05011
1.05026
1.05592
1.05607
0.946701
0.94682
0.951924
0.952042
1.55013
2.67834
1.55753
2.68943