/*--------------------------------*- C++ -*----------------------------------*\
  =========                 |
  \\      /  F ield         | OpenFOAM: The Open Source CFD Toolbox
   \\    /   O peration     | Website:  https://openfoam.org
    \\  /    A nd           | Version:  9
     \\/     M anipulation  |
\*---------------------------------------------------------------------------*/
FoamFile
{
    format      ascii;
    class       volScalarField;
    location    "1";
    object      k;
}
// * * * * * * * * * * * * * * * * * * * * * * * * * * * * * * * * * * * * * //

dimensions      [0 2 -2 0 0 0 0];

internalField   nonuniform List<scalar> 
36360
(
0.0769336
0.07922
0.0123931
0.0166872
0.0100486
0.00911962
0.00423465
0.00383179
0.0122741
0.00315792
0.00383284
0.00307522
0.00360956
0.00299039
0.00338137
0.00350468
0.00255111
0.00255115
0.00324604
0.00324603
0.0030766
0.00307659
0.003484
0.00348399
0.00315785
0.012273
0.00307523
0.00383281
0.00299038
0.0036095
0.00350468
0.00338136
0.0792158
0.0769291
0.0166867
0.0123926
0.00911907
0.010048
0.00383177
0.00423462
0.357365
0.291678
0.230772
0.192601
0.0936614
0.0725653
0.0379682
0.0329787
0.123468
0.0330827
0.0548996
0.0084599
0.0243692
0.0051774
0.00792823
0.00311002
0.00485439
0.00485363
0.00250687
0.00250676
0.00259905
0.002599
0.00275279
0.00275279
0.0330786
0.123464
0.00845876
0.0548953
0.00517693
0.0243677
0.00310996
0.00792762
0.291677
0.357368
0.192595
0.230765
0.0725642
0.0936598
0.0329768
0.0379661
0.502439
0.416402
0.443359
0.364231
0.163687
0.127344
0.135371
0.104353
0.221368
0.106765
0.178943
0.0734504
0.0659161
0.0255559
0.0477101
0.0128489
0.0431382
0.0431351
0.0166516
0.0166496
0.00610295
0.00610234
0.00317558
0.00317541
0.106763
0.221373
0.0734476
0.178943
0.0255545
0.0659169
0.012848
0.0477098
0.416419
0.502467
0.364238
0.443373
0.127349
0.163697
0.104354
0.135374
0.57278
0.480527
0.543614
0.453714
0.196099
0.155155
0.182872
0.143622
0.27644
0.154958
0.253036
0.133785
0.0890359
0.0449092
0.0793142
0.0364183
0.0927345
0.0927349
0.0705053
0.0705044
0.0199656
0.0199646
0.0126755
0.0126746
0.154963
0.276458
0.133787
0.253049
0.0449094
0.0890412
0.036418
0.0793176
0.480564
0.572836
0.453741
0.543654
0.155168
0.19612
0.143632
0.182886
0.60748
0.51278
0.593237
0.499499
0.211444
0.168793
0.20521
0.163224
0.305357
0.182313
0.293377
0.170852
0.100791
0.0556588
0.0959637
0.0512003
0.121592
0.121596
0.109521
0.109523
0.0304999
0.0304997
0.0260072
0.0260067
0.182328
0.305389
0.170863
0.293404
0.0556617
0.100802
0.0512022
0.0959719
0.512838
0.607562
0.499546
0.593303
0.168814
0.211475
0.163242
0.205234
0.623211
0.527538
0.617009
0.521714
0.218221
0.174857
0.215575
0.172491
0.318835
0.19538
0.31352
0.190213
0.106117
0.0605909
0.104036
0.0586705
0.135254
0.135261
0.129872
0.129877
0.0355446
0.0355452
0.0335833
0.0335836
0.195402
0.31888
0.190233
0.31356
0.0605961
0.106132
0.0586749
0.104049
0.527613
0.623316
0.521781
0.6171
0.174885
0.218262
0.172516
0.215609
0.628878
0.532886
0.626897
0.531009
0.22062
0.176974
0.21979
0.17625
0.323805
0.200258
0.322063
0.198541
0.108014
0.0623143
0.107361
0.0617284
0.140305
0.140314
0.138532
0.13854
0.0372692
0.0372705
0.0366921
0.0366929
0.200286
0.323858
0.198568
0.322114
0.062322
0.108033
0.0617349
0.107378
0.532972
0.628996
0.53109
0.627004
0.177008
0.220667
0.176281
0.219832
0.629378
0.533412
0.629526
0.53352
0.220855
0.17714
0.22089
0.17719
0.324478
0.201072
0.324486
0.200992
0.108252
0.0625425
0.108253
0.0625344
0.141203
0.141213
0.141084
0.141094
0.037487
0.0374891
0.0374811
0.0374829
0.201106
0.324537
0.201024
0.324543
0.0625529
0.108275
0.0625439
0.108274
0.53349
0.629497
0.533609
0.629648
0.177178
0.220907
0.177227
0.220939
0.627387
0.53168
0.628637
0.532774
0.22013
0.17645
0.220608
0.176892
0.323309
0.200254
0.3241
0.200847
0.107811
0.0621992
0.108117
0.062444
0.140501
0.140514
0.141026
0.141037
0.0371498
0.0371534
0.0373882
0.037391
0.200294
0.32338
0.200883
0.324167
0.062214
0.10784
0.0624565
0.108144
0.531748
0.627495
0.532849
0.628748
0.176496
0.220193
0.176936
0.220665
0.62443
0.5291
0.62595
0.530424
0.219039
0.175463
0.219597
0.175966
0.321429
0.198765
0.322401
0.199542
0.107115
0.0616451
0.107472
0.0619297
0.139138
0.139151
0.139851
0.139864
0.0366224
0.0366265
0.0368928
0.0368969
0.198806
0.321491
0.199583
0.322469
0.0616602
0.107143
0.0619453
0.107502
0.52914
0.62448
0.530469
0.626019
0.175498
0.219089
0.176006
0.219652
0.621239
0.526374
0.62284
0.527724
0.217907
0.174454
0.218471
0.174955
0.319468
0.197208
0.320451
0.197995
0.106401
0.0610841
0.106759
0.0613665
0.137714
0.137728
0.138436
0.13845
0.0360934
0.0360973
0.0363603
0.0363643
0.197249
0.319522
0.198036
0.32051
0.0610985
0.106427
0.0613814
0.106786
0.526485
0.621378
0.527801
0.622911
0.174482
0.217946
0.174987
0.218513
0.618248
0.523856
0.619691
0.525083
0.216797
0.173474
0.217344
0.173958
0.317557
0.195682
0.318507
0.19645
0.105705
0.0605338
0.106053
0.0608112
0.136311
0.136328
0.137021
0.137036
0.0355738
0.0355779
0.0358366
0.0358407
0.195732
0.317629
0.196495
0.318569
0.0605493
0.105733
0.0608263
0.10608
0.523885
0.618308
0.52516
0.619821
0.173506
0.216842
0.173987
0.217386
0.615206
0.521318
0.616694
0.522539
0.215712
0.172517
0.216248
0.172986
0.315708
0.194187
0.316628
0.194941
0.105019
0.0599871
0.105362
0.0602633
0.13492
0.134938
0.135626
0.135644
0.0350555
0.0350598
0.0353186
0.035323
0.194242
0.315796
0.194996
0.316714
0.0600042
0.105055
0.0602804
0.105395
0.521409
0.615328
0.522627
0.616793
0.172568
0.215769
0.173029
0.216294
0.612214
0.518876
0.613685
0.520068
0.21462
0.171568
0.215164
0.17204
0.313875
0.192696
0.314797
0.193453
0.104335
0.0594362
0.10468
0.0597159
0.133518
0.133532
0.134233
0.134249
0.0345315
0.034535
0.034798
0.0348022
0.19274
0.31395
0.193505
0.314885
0.0594498
0.104364
0.059732
0.104715
0.518948
0.612345
0.520163
0.613811
0.171614
0.214693
0.172095
0.215234
0.609234
0.516421
0.610726
0.517651
0.213521
0.170605
0.214068
0.171083
0.312027
0.191183
0.312958
0.191951
0.103636
0.0588744
0.103988
0.0591591
0.132093
0.132102
0.132819
0.13283
0.0339992
0.0340015
0.0342698
0.0342729
0.19121
0.312055
0.191987
0.31301
0.0588843
0.103655
0.0591715
0.104013
0.516348
0.609161
0.517621
0.610734
0.170622
0.213556
0.171115
0.214119
0.605999
0.51381
0.607572
0.515069
0.212384
0.169615
0.212953
0.170114
0.31013
0.189639
0.311087
0.190426
0.102924
0.0583031
0.103286
0.0585935
0.130639
0.130644
0.131381
0.131388
0.033458
0.0334583
0.0337333
0.0337348
0.189653
0.310129
0.190446
0.311102
0.0583076
0.102933
0.0586007
0.103298
0.513743
0.60594
0.515032
0.607531
0.169614
0.212404
0.170117
0.21298
0.602603
0.511121
0.604266
0.512418
0.211198
0.168574
0.211795
0.169097
0.308152
0.18804
0.309158
0.188857
0.102181
0.057713
0.102559
0.0580137
0.129141
0.129145
0.129907
0.129911
0.0329027
0.0329013
0.0331858
0.0331853
0.188054
0.308166
0.188868
0.309151
0.0577134
0.102186
0.0580163
0.102564
0.511096
0.602607
0.512355
0.604205
0.168575
0.211201
0.16909
0.211795
0.599146
0.50836
0.600873
0.509734
0.209914
0.167466
0.210549
0.16801
0.306085
0.18638
0.307119
0.187224
0.101401
0.057097
0.101795
0.0574108
0.127588
0.127594
0.128381
0.128387
0.032328
0.0323262
0.0326211
0.0326195
0.186402
0.306136
0.187246
0.307169
0.0570975
0.101412
0.0574114
0.101805
0.508352
0.599202
0.509732
0.600911
0.167497
0.209969
0.16804
0.210587
0.595558
0.505514
0.597391
0.50696
0.208647
0.166361
0.209286
0.166922
0.304002
0.184673
0.305062
0.185544
0.100596
0.0564566
0.101005
0.0567827
0.125981
0.125987
0.126801
0.126807
0.0317334
0.0317318
0.0320362
0.0320346
0.184689
0.304009
0.185561
0.30507
0.0564581
0.100605
0.0567838
0.101014
0.505467
0.595444
0.50677
0.597177
0.166368
0.208659
0.166922
0.209303
0.591741
0.502529
0.593614
0.503995
0.207276
0.165168
0.207961
0.165763
0.301788
0.182896
0.302908
0.1838
0.099751
0.0557919
0.100179
0.0561295
0.12432
0.124327
0.125167
0.125173
0.0311208
0.0311199
0.0314321
0.031431
0.182911
0.301801
0.183818
0.302932
0.0557947
0.099759
0.0561321
0.100189
0.502567
0.591799
0.504066
0.593682
0.165173
0.207291
0.165781
0.207985
0.587642
0.49935
0.589655
0.500884
0.205825
0.163913
0.206547
0.164532
0.29949
0.181065
0.300642
0.181993
0.0988726
0.0551068
0.0993146
0.0554538
0.122613
0.12262
0.123481
0.123488
0.030494
0.0304938
0.0308118
0.0308114
0.181082
0.299512
0.182009
0.300656
0.0551117
0.0988846
0.0554581
0.0993247
0.49946
0.587781
0.50096
0.589734
0.163929
0.205848
0.164539
0.206559
0.583582
0.496204
0.585626
0.497785
0.204366
0.162657
0.205098
0.163287
0.297174
0.179199
0.298344
0.180145
0.0979804
0.0544083
0.0984302
0.0547616
0.120869
0.120876
0.121755
0.121763
0.0298567
0.0298566
0.0301794
0.0301795
0.179216
0.297202
0.180164
0.298374
0.0544126
0.0979912
0.054767
0.098443
0.496335
0.583757
0.497918
0.585797
0.162679
0.204398
0.163309
0.205126
0.579394
0.493025
0.581441
0.494565
0.202879
0.16138
0.203619
0.162016
0.294823
0.177299
0.296003
0.178263
0.0970714
0.0536957
0.0975298
0.0540567
0.119087
0.11909
0.119993
0.119998
0.029208
0.0292074
0.0295369
0.0295367
0.177305
0.294834
0.178275
0.296025
0.0536966
0.0970723
0.0540595
0.0975357
0.493145
0.579574
0.494704
0.581622
0.161382
0.202892
0.162028
0.203641
0.575203
0.489857
0.577246
0.491396
0.201335
0.160052
0.202107
0.160714
0.2924
0.175332
0.293624
0.176335
0.0961254
0.0529558
0.0966049
0.0533326
0.117238
0.117241
0.118182
0.118185
0.0285377
0.0285371
0.0288792
0.0288786
0.175337
0.292406
0.176339
0.293632
0.0529566
0.0961268
0.0533331
0.0966045
0.489883
0.575292
0.491492
0.577413
0.160054
0.201346
0.160713
0.202113
0.570611
0.486305
0.572966
0.488119
0.199672
0.15861
0.200523
0.159348
0.289781
0.173234
0.291127
0.174311
0.0951093
0.052168
0.0956301
0.0525715
0.115276
0.115281
0.116283
0.116287
0.027829
0.0278287
0.0281917
0.0281913
0.173248
0.289807
0.174321
0.291143
0.0521711
0.0951192
0.0525738
0.0956364
0.486348
0.570682
0.488142
0.573018
0.15863
0.199702
0.15936
0.200541
0.565499
0.482362
0.568073
0.484342
0.197842
0.157024
0.19877
0.157827
0.286922
0.170971
0.28838
0.17213
0.0940042
0.051319
0.0945682
0.0517533
0.113172
0.113178
0.114251
0.114257
0.027071
0.0270706
0.0274588
0.0274586
0.170992
0.286963
0.172149
0.288417
0.051323
0.0940181
0.0517574
0.0945812
0.482433
0.565603
0.484403
0.568159
0.157052
0.197884
0.157853
0.198806
0.560086
0.478181
0.562796
0.480269
0.195899
0.155343
0.196878
0.156188
0.283884
0.168566
0.285425
0.169792
0.0928272
0.0504142
0.0934246
0.050875
0.110932
0.110937
0.112076
0.112082
0.0262663
0.0262657
0.0266763
0.0266759
0.168587
0.283929
0.169814
0.285471
0.0504178
0.0928413
0.0508792
0.0934394
0.478259
0.560201
0.480346
0.562903
0.155373
0.195943
0.156218
0.19692
0.554457
0.47382
0.557268
0.475993
0.193872
0.153599
0.19489
0.154474
0.280711
0.166049
0.282315
0.167327
0.0915949
0.0494658
0.0922183
0.0499467
0.108581
0.108586
0.109777
0.109782
0.0254264
0.0254255
0.0258522
0.0258516
0.166069
0.280755
0.167349
0.282361
0.0494689
0.0916084
0.0499503
0.0922326
0.473898
0.554572
0.476072
0.557378
0.153628
0.193916
0.154504
0.194933
0.548666
0.469326
0.551552
0.47156
0.191782
0.151797
0.192829
0.1527
0.277436
0.163451
0.279087
0.164766
0.0903204
0.0484863
0.0909633
0.0489812
0.106151
0.106156
0.107382
0.107387
0.0245639
0.0245628
0.0249994
0.0249985
0.16347
0.277479
0.164786
0.279132
0.0484889
0.0903333
0.0489843
0.0909769
0.469402
0.548779
0.471638
0.551661
0.151825
0.191825
0.152729
0.192872
0.542755
0.464732
0.545696
0.467012
0.189645
0.149952
0.190714
0.150875
0.27409
0.160799
0.275773
0.162138
0.0890156
0.0474863
0.0896722
0.0479902
0.103669
0.103673
0.104923
0.104927
0.0236898
0.0236886
0.0241298
0.0241288
0.160817
0.274131
0.162157
0.275817
0.0474885
0.0890279
0.0479929
0.0896853
0.464806
0.542866
0.467088
0.545803
0.14998
0.189688
0.150903
0.190756
0.536759
0.460064
0.539739
0.462378
0.187477
0.148077
0.18856
0.149013
0.270694
0.158114
0.2724
0.159467
0.0876898
0.0464741
0.0883559
0.0469831
0.101156
0.10116
0.102423
0.102427
0.0228128
0.0228114
0.0232532
0.023252
0.158131
0.270733
0.159485
0.272442
0.0464759
0.0877017
0.0469854
0.0883684
0.460137
0.536868
0.462452
0.539844
0.148104
0.187519
0.149041
0.188601
0.530699
0.455338
0.533709
0.45768
0.185284
0.14618
0.186379
0.147126
0.267261
0.15541
0.268985
0.156771
0.0863498
0.0454559
0.0870223
0.0459672
0.0986296
0.0986328
0.0999014
0.0999048
0.0219396
0.0219381
0.0223772
0.0223759
0.155425
0.267299
0.156787
0.269025
0.0454574
0.0863612
0.0459692
0.0870344
0.455408
0.530807
0.457753
0.533813
0.146206
0.185326
0.147153
0.186419
0.52457
0.450543
0.527618
0.452924
0.183069
0.144261
0.184176
0.14522
0.263787
0.152687
0.265534
0.154058
0.0849966
0.0444347
0.0856761
0.0449474
0.0960954
0.0960981
0.0973711
0.0973741
0.0210748
0.0210731
0.0215078
0.0215063
0.152701
0.263824
0.154074
0.265573
0.0444359
0.0850076
0.0449491
0.0856878
0.450612
0.524676
0.452995
0.527721
0.144287
0.183109
0.145246
0.184216
0.518295
0.445611
0.521433
0.448075
0.180803
0.1423
0.181941
0.143285
0.260219
0.149914
0.262023
0.151317
0.0836177
0.0434055
0.0843129
0.0439235
0.0935348
0.0935371
0.0948283
0.0948309
0.0202181
0.0202163
0.0206475
0.0206459
0.149927
0.260254
0.151332
0.262061
0.0434063
0.0836282
0.0439249
0.0843242
0.445679
0.518399
0.448144
0.521533
0.142325
0.180843
0.14331
0.18198
0.511654
0.440348
0.515016
0.443013
0.178408
0.140229
0.179626
0.141281
0.256406
0.146982
0.258361
0.148486
0.0821685
0.0423428
0.0829076
0.0428828
0.0908669
0.0908687
0.0922303
0.0922324
0.0193559
0.0193539
0.019791
0.0197893
0.146995
0.25644
0.148499
0.258398
0.0423434
0.0821786
0.0428838
0.0829184
0.440414
0.511755
0.443081
0.515114
0.140254
0.178447
0.141306
0.179665
0.504118
0.434295
0.508021
0.437436
0.175679
0.137892
0.177101
0.139104
0.251983
0.143616
0.254308
0.145386
0.0805328
0.0411725
0.0813863
0.0417802
0.0878669
0.0878682
0.0894376
0.0894392
0.0184414
0.0184394
0.0189117
0.0189098
0.143628
0.252016
0.145399
0.254344
0.0411728
0.0805425
0.041781
0.0813966
0.434359
0.504217
0.437502
0.508117
0.137916
0.175718
0.139129
0.177138
0.494555
0.426442
0.499669
0.430665
0.172183
0.134966
0.174064
0.136528
0.246142
0.139208
0.249321
0.141605
0.078446
0.0397156
0.079572
0.0404985
0.0840348
0.0840357
0.086106
0.0861072
0.0173562
0.0173541
0.0179329
0.0179309
0.139219
0.246174
0.141616
0.249355
0.0397157
0.0784553
0.0404989
0.0795818
0.426504
0.494651
0.430728
0.499763
0.134989
0.17222
0.136552
0.1741
0.480619
0.414157
0.488313
0.42113
0.167044
0.130752
0.169891
0.13309
0.236975
0.132561
0.242174
0.136272
0.0753209
0.0376011
0.0770713
0.0387737
0.0785235
0.0785234
0.0815531
0.0815536
0.0158724
0.0158701
0.0166827
0.0166806
0.13257
0.237005
0.136282
0.242207
0.0376008
0.0753297
0.0387739
0.0770807
0.414218
0.480715
0.421192
0.488405
0.130775
0.167081
0.133113
0.169926
0.45802
0.386295
0.470828
0.403885
0.158236
0.121998
0.163377
0.127474
0.219694
0.1221
0.229808
0.127858
0.0697847
0.0343043
0.0729885
0.0361242
0.0708054
0.0708024
0.0749033
0.0749023
0.0137872
0.0137842
0.014903
0.0149007
0.122104
0.21972
0.127866
0.229839
0.0343023
0.069792
0.0361236
0.0729973
0.386355
0.458124
0.403946
0.470923
0.122021
0.158275
0.127497
0.163414
0.126883
0.119671
0.0172242
0.0210772
0.107811
0.102956
0.0151982
0.0182863
0.0242169
0.00421662
0.0041978
0.00309499
0.0186401
0.00364713
0.00398532
0.0030983
0.0025256
0.00252557
0.00328649
0.00328649
0.00251562
0.00251561
0.00330682
0.00330682
0.00421615
0.0242134
0.00309497
0.00419765
0.00364691
0.0186379
0.00309829
0.00398524
0.119662
0.126875
0.0210757
0.0172229
0.102949
0.107804
0.0182853
0.0151972
0.512566
0.417558
0.348815
0.28321
0.457596
0.371952
0.306542
0.250036
0.207128
0.0791978
0.105462
0.0226836
0.175248
0.0599878
0.085157
0.0159599
0.0168599
0.0168564
0.00365583
0.00365531
0.0106434
0.0106417
0.00300421
0.003004
0.0791888
0.207122
0.0226795
0.105453
0.0599821
0.175244
0.0159576
0.0851507
0.41756
0.512579
0.283202
0.348808
0.371953
0.457602
0.250029
0.306534
0.712862
0.593415
0.629288
0.518592
0.637382
0.528552
0.563115
0.462463
0.35211
0.196194
0.288726
0.142302
0.301895
0.159708
0.246937
0.114372
0.110327
0.110324
0.0566819
0.0566765
0.0810584
0.0810558
0.0376119
0.0376085
0.196193
0.352122
0.142297
0.288729
0.159707
0.301905
0.114369
0.24694
0.593448
0.71292
0.518609
0.629319
0.528577
0.637422
0.462476
0.563135
0.816295
0.688746
0.772884
0.648369
0.727624
0.611292
0.689978
0.576464
0.437176
0.274928
0.40056
0.240268
0.374348
0.225241
0.343352
0.196461
0.191615
0.191619
0.155735
0.155736
0.148694
0.148697
0.11877
0.118771
0.274944
0.437214
0.240277
0.400586
0.225254
0.374378
0.196468
0.343373
0.688818
0.816405
0.648421
0.772962
0.611347
0.727702
0.576504
0.690033
0.869063
0.738609
0.847228
0.71787
0.772836
0.653726
0.754205
0.636161
0.483764
0.320339
0.464235
0.301162
0.413249
0.262644
0.397026
0.246908
0.238559
0.23857
0.218758
0.218766
0.1876
0.187608
0.171252
0.171258
0.320374
0.48383
0.30119
0.464289
0.26267
0.413301
0.246929
0.397068
0.738719
0.869222
0.717961
0.847356
0.653811
0.772952
0.636231
0.754297
0.893665
0.76223
0.883885
0.752803
0.79359
0.673474
0.785371
0.665628
0.506453
0.342874
0.497368
0.333829
0.431828
0.280884
0.42443
0.273605
0.261771
0.261787
0.252465
0.252479
0.206477
0.206489
0.198959
0.198969
0.342923
0.506541
0.333872
0.497448
0.280921
0.431897
0.273638
0.424492
0.76237
0.893864
0.752929
0.884056
0.673582
0.793736
0.665726
0.785495
0.902832
0.771212
0.899582
0.767996
0.801157
0.680802
0.798493
0.678199
0.515388
0.351889
0.512162
0.348614
0.438948
0.287972
0.436403
0.285426
0.271057
0.271076
0.267678
0.267695
0.21379
0.213804
0.211162
0.211176
0.351946
0.515489
0.348668
0.512259
0.288016
0.439026
0.285467
0.436479
0.771369
0.903053
0.768146
0.899783
0.680924
0.801321
0.678315
0.79864
0.903786
0.772362
0.904004
0.772453
0.801816
0.681605
0.802037
0.681726
0.517052
0.353844
0.516852
0.353478
0.440111
0.289356
0.440026
0.28914
0.273185
0.273205
0.272735
0.272754
0.215307
0.215322
0.215026
0.215041
0.353908
0.517169
0.353537
0.51696
0.289405
0.440203
0.289186
0.440111
0.77252
0.904037
0.772626
0.904244
0.681742
0.802005
0.681857
0.802205
0.900636
0.769761
0.902634
0.771444
0.799061
0.679275
0.800793
0.680763
0.515444
0.352765
0.516595
0.353604
0.438651
0.288358
0.439662
0.289101
0.272316
0.272341
0.273026
0.273048
0.214482
0.2145
0.21512
0.215136
0.352848
0.515599
0.353676
0.516729
0.288419
0.438771
0.289155
0.439768
0.769912
0.900884
0.771594
0.90287
0.679483
0.799302
0.680918
0.800983
0.896107
0.76583
0.898439
0.767878
0.795073
0.675846
0.797079
0.677578
0.512484
0.350371
0.514042
0.35165
0.43616
0.286356
0.437452
0.287408
0.270144
0.270173
0.271314
0.271341
0.212658
0.21268
0.213622
0.213642
0.35047
0.512668
0.351743
0.514209
0.286427
0.4363
0.287476
0.437586
0.766077
0.896389
0.768003
0.898607
0.676182
0.795462
0.677861
0.797389
0.891136
0.761559
0.89356
0.763638
0.790792
0.672231
0.792879
0.673976
0.509289
0.347774
0.510898
0.349097
0.433482
0.284218
0.434825
0.285298
0.267774
0.267808
0.268987
0.269019
0.21071
0.210733
0.211698
0.21172
0.347886
0.509525
0.349203
0.511107
0.284291
0.433626
0.285371
0.434967
0.762056
0.891712
0.763988
0.893948
0.672549
0.791229
0.674333
0.793309
0.886371
0.757518
0.888657
0.759439
0.786957
0.668942
0.788804
0.67054
0.50623
0.345248
0.507744
0.346524
0.430926
0.282129
0.432181
0.283175
0.265446
0.265481
0.26663
0.266665
0.208793
0.20882
0.20976
0.209785
0.345364
0.506479
0.346642
0.508011
0.282213
0.431073
0.283256
0.432341
0.758048
0.887088
0.76005
0.889409
0.669096
0.787168
0.67078
0.789148
0.88213
0.753878
0.884217
0.755694
0.783036
0.665625
0.784959
0.66724
0.503292
0.342775
0.504784
0.344034
0.428449
0.280089
0.429688
0.281117
0.263155
0.26319
0.264325
0.264361
0.206905
0.206933
0.207861
0.207889
0.342887
0.503492
0.344147
0.504989
0.280176
0.428583
0.281204
0.429819
0.754169
0.882485
0.756041
0.884689
0.665801
0.78324
0.667386
0.785116
0.877315
0.749864
0.879642
0.751766
0.779029
0.662324
0.780952
0.663896
0.500279
0.340301
0.501786
0.341562
0.425954
0.278055
0.427204
0.279085
0.260869
0.2609
0.262039
0.262073
0.205015
0.205038
0.205976
0.206001
0.340416
0.500551
0.341679
0.502049
0.27813
0.426095
0.279169
0.427356
0.750377
0.878032
0.752277
0.880254
0.662472
0.779278
0.66413
0.781251
0.87299
0.746184
0.875165
0.748061
0.775088
0.659014
0.77707
0.66068
0.497338
0.337832
0.498834
0.339094
0.423449
0.276001
0.424711
0.277042
0.258571
0.258595
0.25975
0.259777
0.203104
0.20312
0.204076
0.204095
0.337913
0.497489
0.339193
0.499045
0.276056
0.42355
0.277108
0.424834
0.746256
0.873112
0.74833
0.875601
0.659036
0.77513
0.660732
0.777176
0.867956
0.741985
0.870521
0.744086
0.770851
0.655582
0.772882
0.657209
0.494287
0.33531
0.495842
0.336603
0.420894
0.273907
0.422178
0.27497
0.256234
0.256252
0.257435
0.257456
0.201158
0.201169
0.202149
0.202163
0.335367
0.494387
0.336671
0.495961
0.273942
0.420935
0.275016
0.422251
0.74227
0.86828
0.744232
0.870623
0.655534
0.770837
0.657234
0.772917
0.862947
0.73787
0.865447
0.73994
0.766529
0.652008
0.768767
0.653853
0.491124
0.332707
0.49274
0.334044
0.418237
0.271744
0.41959
0.272847
0.253837
0.253858
0.25507
0.255089
0.199158
0.199169
0.200178
0.200189
0.332777
0.49125
0.334103
0.492836
0.27178
0.418297
0.272877
0.419613
0.73812
0.863252
0.74016
0.865739
0.652068
0.76655
0.653718
0.768596
0.857727
0.733578
0.860273
0.735673
0.761916
0.648303
0.764185
0.650114
0.487861
0.330031
0.489505
0.331398
0.415496
0.26951
0.416869
0.270644
0.251371
0.251394
0.252638
0.252661
0.197093
0.197106
0.198146
0.198159
0.330112
0.488052
0.331481
0.489687
0.269555
0.415591
0.270691
0.416971
0.734001
0.858275
0.736084
0.860761
0.648579
0.762244
0.650324
0.764391
0.852385
0.729269
0.854974
0.73133
0.757442
0.644691
0.759623
0.646472
0.48458
0.327295
0.486236
0.328697
0.412704
0.267213
0.414114
0.268381
0.248835
0.248853
0.250138
0.250158
0.194962
0.194974
0.196048
0.19606
0.327349
0.484681
0.328767
0.486402
0.267244
0.412745
0.26842
0.414187
0.729458
0.852719
0.731727
0.855511
0.644772
0.757575
0.64668
0.759904
0.847036
0.724896
0.849775
0.727146
0.752353
0.640654
0.754842
0.642585
0.481153
0.324462
0.482913
0.325916
0.409757
0.264831
0.411241
0.266042
0.246225
0.246239
0.247565
0.24758
0.192766
0.192777
0.193884
0.193895
0.324496
0.481179
0.325957
0.48296
0.264857
0.409778
0.266071
0.411277
0.724855
0.847019
0.727143
0.849833
0.640649
0.752412
0.642682
0.754984
0.841143
0.720141
0.844054
0.722483
0.747429
0.63676
0.74985
0.638684
0.477546
0.321531
0.479376
0.323029
0.406732
0.262379
0.408259
0.263623
0.243544
0.243558
0.244917
0.244931
0.190511
0.190522
0.191657
0.191667
0.321568
0.477587
0.323066
0.479414
0.262403
0.406732
0.263648
0.408269
0.720131
0.841179
0.722471
0.844057
0.636604
0.747323
0.638613
0.74982
0.835045
0.715245
0.83807
0.71766
0.742182
0.63259
0.744798
0.634653
0.473861
0.318537
0.475725
0.320064
0.403619
0.25987
0.405186
0.261141
0.240805
0.240817
0.242206
0.242219
0.188206
0.188215
0.189376
0.189386
0.318565
0.473866
0.320097
0.47575
0.25989
0.403595
0.261164
0.405174
0.715035
0.834878
0.717575
0.838036
0.632275
0.741866
0.634396
0.744556
0.828795
0.710255
0.831892
0.71272
0.736736
0.628315
0.739413
0.630404
0.470105
0.315484
0.472
0.31704
0.400459
0.257316
0.402041
0.258608
0.238008
0.238019
0.239439
0.239451
0.18585
0.185858
0.187046
0.187055
0.315518
0.470148
0.31707
0.472015
0.257332
0.400441
0.258626
0.402018
0.710077
0.828603
0.712479
0.831644
0.627994
0.736403
0.630069
0.739056
0.822413
0.705178
0.825586
0.707697
0.73119
0.623972
0.733944
0.626125
0.466276
0.312339
0.46822
0.31395
0.397224
0.254681
0.398862
0.256023
0.235112
0.235125
0.236601
0.236613
0.18341
0.183417
0.184656
0.184662
0.312379
0.466352
0.313988
0.468283
0.254697
0.397221
0.256039
0.398848
0.705245
0.822477
0.70761
0.825453
0.623723
0.730888
0.625799
0.73358
0.815622
0.699753
0.819063
0.702502
0.725181
0.619247
0.728219
0.621631
0.462188
0.308994
0.464292
0.310721
0.393735
0.251867
0.395522
0.25331
0.232038
0.232053
0.233626
0.233639
0.180819
0.180828
0.182148
0.182156
0.309036
0.462269
0.310762
0.464374
0.251892
0.393773
0.253331
0.395537
0.699886
0.815813
0.702609
0.8192
0.619249
0.72516
0.621482
0.728005
0.808183
0.693792
0.81194
0.696801
0.718621
0.614085
0.721916
0.616672
0.457728
0.305379
0.460016
0.307241
0.389937
0.24883
0.391873
0.250384
0.228734
0.228751
0.230439
0.230454
0.178036
0.178047
0.179462
0.179472
0.305428
0.457817
0.307288
0.460102
0.248865
0.390002
0.250416
0.39193
0.693935
0.808396
0.69694
0.812135
0.614187
0.718764
0.616746
0.722001
0.800286
0.687451
0.804245
0.690626
0.711672
0.608609
0.715143
0.611341
0.452977
0.301527
0.455397
0.303501
0.385898
0.245598
0.387945
0.247245
0.225209
0.225227
0.22702
0.227037
0.175069
0.175081
0.176584
0.176595
0.301579
0.453071
0.303553
0.455492
0.245635
0.385969
0.247282
0.388017
0.687601
0.800507
0.690776
0.804453
0.608724
0.711835
0.611454
0.715293
0.792066
0.680866
0.796178
0.684156
0.70445
0.602894
0.708047
0.605739
0.448012
0.297486
0.450532
0.299548
0.381676
0.24221
0.383809
0.243929
0.221501
0.221518
0.223398
0.223415
0.171951
0.171962
0.173536
0.173548
0.297537
0.448106
0.299601
0.450629
0.242246
0.381746
0.243967
0.383882
0.681016
0.792287
0.684308
0.79639
0.603009
0.704614
0.605855
0.708203
0.783589
0.674069
0.787821
0.677461
0.697019
0.597004
0.700714
0.599928
0.442879
0.293301
0.445478
0.29543
0.377316
0.238706
0.379513
0.240478
0.217652
0.217667
0.219613
0.219629
0.16872
0.16873
0.170357
0.170367
0.293349
0.442969
0.29548
0.445572
0.23874
0.377384
0.240514
0.379584
0.674215
0.783807
0.67761
0.78803
0.597116
0.697181
0.600043
0.700869
0.774921
0.667103
0.779241
0.670573
0.689428
0.59098
0.693198
0.593967
0.437617
0.289009
0.440275
0.291186
0.372853
0.235119
0.375097
0.236929
0.213701
0.213716
0.215708
0.215723
0.16541
0.165419
0.167082
0.167092
0.289055
0.437704
0.291234
0.440366
0.235151
0.372919
0.236963
0.375166
0.667247
0.775135
0.670719
0.779447
0.59109
0.689587
0.594079
0.69335
0.766111
0.660012
0.770497
0.663541
0.681719
0.584855
0.685544
0.587889
0.43226
0.284642
0.434962
0.286853
0.368317
0.231477
0.370595
0.233311
0.209681
0.209695
0.211719
0.211733
0.162049
0.162058
0.163743
0.163752
0.284686
0.432345
0.286899
0.435051
0.231508
0.36838
0.233344
0.370661
0.660152
0.766321
0.663683
0.770699
0.584962
0.681876
0.587999
0.685693
0.757185
0.652812
0.761628
0.656394
0.673918
0.578645
0.677787
0.581721
0.426825
0.280217
0.429566
0.282456
0.363721
0.227796
0.366028
0.229649
0.20561
0.205623
0.207672
0.207685
0.158656
0.158664
0.160364
0.160373
0.28026
0.426907
0.2825
0.429652
0.227826
0.363783
0.22968
0.366093
0.652948
0.757392
0.656534
0.761827
0.578749
0.674072
0.581828
0.677934
0.748123
0.645478
0.752642
0.649135
0.666012
0.572333
0.66994
0.575466
0.421288
0.275721
0.424086
0.278
0.359054
0.224071
0.361401
0.225949
0.201482
0.201495
0.203575
0.203588
0.155231
0.155239
0.156957
0.156965
0.275762
0.421368
0.278043
0.42417
0.2241
0.359113
0.225979
0.361464
0.645611
0.748327
0.649272
0.752838
0.572435
0.666164
0.575571
0.670084
0.738791
0.637881
0.743473
0.641695
0.657897
0.565819
0.661951
0.569074
0.415538
0.271066
0.418465
0.273442
0.354232
0.220242
0.356673
0.222184
0.197224
0.197236
0.199397
0.19941
0.151731
0.151738
0.153504
0.153512
0.271105
0.415616
0.273483
0.418546
0.220269
0.354289
0.222213
0.356734
0.638011
0.73899
0.641829
0.743665
0.565919
0.658045
0.569176
0.662094
0.728824
0.629682
0.733889
0.633859
0.649274
0.55883
0.653637
0.562373
0.409274
0.265998
0.412513
0.268627
0.349023
0.216125
0.351701
0.218246
0.192613
0.192624
0.195004
0.195016
0.148
0.148007
0.149919
0.149926
0.266035
0.409349
0.268666
0.412592
0.216151
0.349079
0.218273
0.35176
0.629809
0.729019
0.633989
0.734077
0.558927
0.649419
0.562472
0.653777
0.71739
0.620106
0.723335
0.625108
0.639445
0.550728
0.644535
0.55494
0.401809
0.259933
0.405769
0.263162
0.342882
0.211276
0.346123
0.213842
0.187122
0.187133
0.190044
0.190055
0.143655
0.143661
0.145949
0.145956
0.259968
0.401881
0.263199
0.405845
0.2113
0.342936
0.213867
0.34618
0.620228
0.717579
0.625233
0.723518
0.550822
0.639586
0.555037
0.644671
0.702714
0.607463
0.710591
0.614302
0.626898
0.540096
0.633614
0.54583
0.391682
0.251702
0.397227
0.256206
0.334615
0.204763
0.339131
0.208318
0.179756
0.179766
0.183772
0.183782
0.137908
0.137913
0.14103
0.141036
0.251735
0.391752
0.256241
0.3973
0.204785
0.334667
0.208342
0.339185
0.607582
0.702897
0.614423
0.710769
0.540187
0.627036
0.545923
0.633746
0.681041
0.587493
0.693059
0.598836
0.608375
0.523252
0.618643
0.532829
0.375742
0.239333
0.384754
0.246197
0.321523
0.194894
0.328943
0.200388
0.169175
0.169183
0.174954
0.174963
0.129594
0.129599
0.134148
0.134153
0.239363
0.375809
0.246229
0.384824
0.194914
0.321573
0.20041
0.328995
0.587609
0.681223
0.598954
0.693233
0.523341
0.608512
0.532921
0.618773
0.645025
0.544345
0.665546
0.571119
0.577219
0.485861
0.59505
0.509239
0.347483
0.221062
0.363683
0.230917
0.297619
0.179888
0.311435
0.188044
0.155205
0.155211
0.162491
0.162498
0.118331
0.118332
0.124242
0.124245
0.221086
0.347544
0.230946
0.36375
0.179902
0.297663
0.188063
0.311485
0.54446
0.64522
0.571236
0.665724
0.485949
0.577367
0.50933
0.595183
0.143192
0.133019
0.0189738
0.0227889
0.137359
0.127882
0.0183526
0.0218696
0.0289237
0.00480126
0.00435977
0.00311358
0.0270374
0.00456137
0.00428169
0.00311424
0.00256636
0.0025663
0.00328768
0.00328769
0.00255875
0.00255871
0.00329772
0.00329772
0.00480048
0.028919
0.00311355
0.00435954
0.00456079
0.0270335
0.00311422
0.00428151
0.133008
0.143182
0.0227868
0.0189722
0.127873
0.137349
0.0218678
0.0183511
0.561534
0.459135
0.384838
0.312272
0.543678
0.443798
0.372154
0.301742
0.23745
0.0981843
0.123682
0.0293795
0.226181
0.0910336
0.116937
0.0267822
0.024503
0.0244976
0.00451988
0.0045189
0.0214341
0.0214302
0.00416421
0.00416354
0.0981725
0.237443
0.0293734
0.123672
0.0910247
0.226177
0.0267777
0.116928
0.459141
0.561557
0.312265
0.384836
0.443803
0.543693
0.301735
0.372147
0.783858
0.656044
0.689968
0.571332
0.757132
0.632272
0.667423
0.551566
0.403085
0.235919
0.329837
0.171541
0.383537
0.220403
0.314303
0.160313
0.1445
0.144498
0.0789908