/*--------------------------------*- C++ -*----------------------------------*\
  =========                 |
  \\      /  F ield         | OpenFOAM: The Open Source CFD Toolbox
   \\    /   O peration     | Website:  https://openfoam.org
    \\  /    A nd           | Version:  9
     \\/     M anipulation  |
\*---------------------------------------------------------------------------*/
FoamFile
{
    format      ascii;
    class       volScalarField;
    location    "1";
    object      nut;
}
// * * * * * * * * * * * * * * * * * * * * * * * * * * * * * * * * * * * * * //

dimensions      [0 2 -1 0 0 0 0];

internalField   nonuniform List<scalar> 
36360
(
0.00120395
0.00126106
0.000247812
0.000306773
0.000296339
0.00028245
0.000192284
0.000182923
0.000335003
0.000168055
0.000166029
0.000161222
0.000177567
0.000161574
0.00017182
0.000174929
0.000157428
0.00015743
0.000166284
0.000166283
0.000163887
0.000163887
0.000174408
0.000174408
0.000168056
0.000334977
0.000161221
0.000166028
0.000161574
0.000177565
0.000174929
0.00017182
0.00126099
0.00120388
0.000306765
0.000247806
0.000282441
0.000296331
0.000182922
0.000192283
0.00496505
0.00429058
0.00336313
0.00290436
0.00090503
0.000796797
0.000576249
0.000537244
0.00257352
0.0010428
0.0012666
0.00032089
0.000462113
0.000213066
0.000263508
0.000164828
0.000255071
0.000255038
0.000168858
0.000168854
0.000150708
0.000150706
0.000155011
0.000155012
0.00104266
0.00257344
0.000320853
0.00126651
0.000213056
0.000462098
0.000164826
0.000263498
0.00429057
0.00496512
0.00290428
0.00336305
0.000796791
0.000905022
0.000537228
0.000576233
0.0067417
0.00599082
0.00602136
0.00528346
0.00119645
0.00105549
0.00108802
0.000955453
0.00428303
0.00283223
0.0035583
0.00205588
0.000759821
0.000473804
0.000646449
0.000335973
0.00167044
0.00167034
0.000704573
0.000704496
0.00023214
0.000232129
0.000166864
0.00016686
0.00283217
0.0042831
0.0020558
0.0035583
0.000473791
0.000759826
0.000335961
0.000646447
0.00599106
0.00674212
0.00528358
0.00602158
0.00105551
0.00119648
0.000955462
0.00108803
0.00761209
0.00686858
0.00724838
0.00649937
0.00130972
0.00116521
0.00126469
0.00112098
0.00521532
0.00392189
0.00481863
0.00344681
0.000883238
0.0006283
0.000833528
0.000565672
0.00319337
0.0031934
0.00254105
0.00254102
0.000420797
0.000420786
0.000335128
0.000335117
0.00392201
0.00521563
0.00344686
0.00481883
0.000628302
0.000883265
0.000565671
0.000833546
0.00686913
0.00761289
0.00649977
0.00724895
0.00116526
0.00130979
0.00112102
0.00126474
0.00805772
0.0073245
0.00787283
0.00713509
0.0013602
0.00121556
0.0013399
0.00119523
0.00571238
0.00452958
0.00550529
0.00427562
0.000939995
0.000699798
0.000917081
0.000671028
0.00398113
0.00398125
0.00365843
0.0036585
0.000520283
0.000520282
0.000480355
0.000480351
0.00452991
0.00571294
0.00427585
0.00550574
0.000699817
0.000940044
0.000671041
0.000917121
0.00732537
0.0080589
0.0071358
0.00787378
0.00121564
0.0013603
0.0011953
0.00133998
0.00827098
0.0075425
0.00818559
0.00745541
0.001382
0.00123739
0.00137352
0.0012289
0.00595045
0.00482075
0.00585569
0.00470512
0.000964735
0.000730429
0.000955124
0.000718632
0.00433985
0.00434003
0.00419879
0.00419894
0.000561881
0.000561887
0.000546052
0.000546055
0.00482124
0.00595122
0.00470554
0.00585638
0.000730462
0.000964802
0.00071866
0.000955184
0.00754363
0.00827248
0.00745641
0.00818688
0.00123749
0.00138213
0.00122899
0.00137363
0.00835695
0.00762927
0.00832531
0.00759756
0.00138971
0.00124499
0.00138703
0.00124238
0.00604373
0.00493375
0.00601002
0.00489302
0.000973474
0.000740935
0.000970458
0.00073736
0.00447572
0.00447593
0.00442696
0.00442716
0.00057555
0.000575561
0.000570983
0.000570991
0.00493432
0.0060446
0.00489356
0.00601086
0.000740982
0.000973559
0.0007374
0.000970535
0.00763051
0.00835858
0.00759876
0.00832683
0.00124511
0.00138985
0.00124249
0.00138717
0.0083757
0.00764745
0.00837228
0.0076444
0.00139051
0.00124565
0.0013906
0.0012458
0.00606289
0.00495809
0.00605988
0.00495359
0.000974618
0.000742382
0.000974599
0.000742306
0.00450543
0.00450563
0.00449952
0.00449971
0.000577343
0.000577359
0.00057726
0.000577274
0.00495866
0.00606377
0.00495415
0.00606077
0.000742444
0.000974721
0.000742363
0.000974697
0.00764861
0.00837734
0.00764567
0.0083739
0.00124578
0.00139068
0.00124593
0.00139076
0.0083668
0.00763796
0.008375
0.00764642
0.00138828
0.00124327
0.00138977
0.00124481
0.0060533
0.00494866
0.00606189
0.00495709
0.000972684
0.000740407
0.000974046
0.000741834
0.0044951
0.00449523
0.0045041
0.00450424
0.000574843
0.000574871
0.000576637
0.000576659
0.00494918
0.0060542
0.00495759
0.00606276
0.000740495
0.000972816
0.000741909
0.000974164
0.00763897
0.00836824
0.00764748
0.00837648
0.00124343
0.00138847
0.00124496
0.00138994
0.00834355
0.00761447
0.00835619
0.00762718
0.00138485
0.0012398
0.00138661
0.00124157
0.00602972
0.00492294
0.00604243
0.00493678
0.000969547
0.000737114
0.000971162
0.000738809
0.00446603
0.00446619
0.00448166
0.00448177
0.000570788
0.00057082
0.000572872
0.000572904
0.00492353
0.0060307
0.0049373
0.00604338
0.000737204
0.000969674
0.000738902
0.000971294
0.00761564
0.00834497
0.0076282
0.0083575
0.00123992
0.00138498
0.00124171
0.00138678
0.00831607
0.00758751
0.00833034
0.00760135
0.00138126
0.00123622
0.00138305
0.001238
0.0060035
0.00489458
0.00601697
0.00490918
0.000966312
0.000733755
0.000967936
0.000735449
0.00443403
0.00443426
0.00445051
0.00445069
0.000566681
0.000566712
0.000568757
0.000568789
0.0048953
0.00600462
0.00490983
0.00601804
0.000733841
0.000966428
0.000735538
0.000968057
0.00758953
0.00831845
0.00760292
0.008332
0.00123633
0.00138137
0.00123811
0.00138317
0.00828961
0.00756187
0.00830276
0.00757475
0.00137774
0.00123275
0.00137947
0.00123446
0.00597742
0.0048662
0.00599065
0.00488067
0.000963138
0.000730443
0.000964726
0.000732114
0.00440187
0.00440216
0.00441831
0.00441855
0.000562616
0.000562649
0.000564676
0.000564708
0.0048671
0.00597879
0.00488148
0.00599191
0.000730538
0.000963267
0.000732205
0.000964848
0.00756324
0.00829146
0.00757657
0.00830512
0.00123285
0.00137786
0.00123457
0.00137959
0.00826274
0.00753603
0.00827641
0.00754906
0.00137426
0.00122933
0.00137599
0.00123101
0.00595198
0.00483815
0.00596498
0.00485252
0.000960007
0.000727141
0.000961572
0.000728811
0.00436974
0.00436998
0.00438622
0.00438648
0.000558534
0.000558569
0.00056061
0.000560645
0.00483896
0.00595321
0.0048534
0.00596633
0.000727245
0.000960169
0.000728914
0.000961723
0.00753744
0.00826457
0.00755057
0.00827819
0.00122951
0.00137444
0.00123116
0.00137611
0.00823584
0.00751052
0.00824945
0.00752341
0.00137077
0.00122594
0.00137251
0.00122763
0.00592644
0.00480991
0.00593952
0.00482442
0.000956873
0.000723798
0.000958455
0.000725497
0.00433714
0.00433736
0.00435389
0.0043541
0.000554377
0.000554406
0.000556495
0.000556529
0.00481062
0.00592754
0.00482514
0.0059407
0.000723882
0.000957007
0.000725595
0.000958613
0.00751176
0.00823758
0.00752477
0.00825114
0.00122611
0.00137102
0.00122782
0.00137273
0.00820881
0.00748472
0.00822282
0.0074981
0.00136726
0.0012225
0.00136901
0.00122421
0.00590068
0.00478125
0.00591397
0.00479602
0.000953662
0.000720374
0.000955279
0.000722112
0.00430387
0.00430404
0.004321
0.00432116
0.000550121
0.00055014
0.000552289
0.000552314
0.00478176
0.00590141
0.00479659
0.00591485
0.000720435
0.000953748
0.000722188
0.000955395
0.0074851
0.00820935
0.00749865
0.00822371
0.00122255
0.00136738
0.00122432
0.00136918
0.00817948
0.00745724
0.00819415
0.00747097
0.0013636
0.00121893
0.00136543
0.00122073
0.00587395
0.00475167
0.00588764
0.00476687
0.000950378
0.000716874
0.000952047
0.000718655
0.00426954
0.00426974
0.00428721
0.00428739
0.000545759
0.000545762
0.000547982
0.000547995
0.00475216
0.00587453
0.00476739
0.00588835
0.000716903
0.000950416
0.0007187
0.000952102
0.00745776
0.00818018
0.00747171
0.00819495
0.00121893
0.00136368
0.00122074
0.00136553
0.00814869
0.00742891
0.00816427
0.00744313
0.00135978
0.00121518
0.0013617
0.00121707
0.00584621
0.00472102
0.00586054
0.00473684
0.000946939
0.00071324
0.000948687
0.000715095
0.00423398
0.00423425
0.00425229
0.00425249
0.000541245
0.000541235
0.000543551
0.000543548
0.00472166
0.00584707
0.00473732
0.00586115
0.000713245
0.000946961
0.000715111
0.000948712
0.00742991
0.00815029
0.00744379
0.00816515
0.00121519
0.00135981
0.00121704
0.00136172
0.00811822
0.00740038
0.00813393
0.00741517
0.00135566
0.00121119
0.0013577
0.00121316
0.00581754
0.00468938
0.00583226
0.00470564
0.000943313
0.000709428
0.000945143
0.000711372
0.00419713
0.00419743
0.00421609
0.00421637
0.000536534
0.00053652
0.000538941
0.00053893
0.00469009
0.00581865
0.00470634
0.00583332
0.000709434
0.000943366
0.000711379
0.000945195
0.00740107
0.00811944
0.007416
0.00813537
0.00121129
0.00135584
0.00121326
0.00135783
0.00808545
0.00736999
0.00810242
0.00738561
0.00135155
0.00120718
0.00135362
0.00120921
0.00578808
0.00465665
0.00580322
0.00467347
0.000939566
0.000705445
0.000941473
0.000707476
0.00415888
0.00415916
0.00417854
0.0041788
0.000531614
0.000531602
0.000534125
0.000534113
0.00465725
0.00578876
0.00467411
0.00580405
0.000705456
0.000939607
0.000707485
0.000941511
0.00737069
0.00808601
0.00738558
0.00810232
0.0012072
0.00135159
0.0012092
0.00135367
0.0080514
0.00733886
0.00806869
0.00735473
0.0013471
0.00120284
0.00134932
0.00120501
0.00575729
0.00462274
0.00577315
0.00464017
0.000935608
0.000701285
0.000937612
0.000703401
0.00411925
0.00411951
0.00413959
0.00413984
0.000526496
0.00052649
0.000529104
0.000529095
0.00462332
0.00575807
0.00464074
0.00577389
0.000701304
0.000935646
0.000703419
0.000937662
0.00734012
0.008053
0.00735596
0.00807008
0.00120287
0.00134716
0.00120508
0.00134941
0.0080157
0.00730624
0.00803383
0.00732274
0.00134238
0.00119826
0.00134473
0.00120052
0.00572546
0.00458775
0.00574178
0.0046057
0.000931478
0.000696971
0.000933559
0.00069916
0.00407829
0.00407851
0.00409929
0.0040995
0.000521205
0.000521205
0.000523895
0.000523893
0.00458826
0.00572613
0.00460623
0.0057425
0.000697003
0.000931534
0.000699187
0.000933605
0.00730771
0.00801762
0.0073242
0.00803551
0.00119833
0.00134246
0.00120056
0.00134478
0.00797894
0.00727259
0.00799776
0.00728982
0.00133761
0.00119365
0.00134001
0.00119597
0.0056926
0.00455165
0.00570943
0.00457015
0.000927263
0.000692543
0.000929391
0.000694786
0.004036
0.00403624
0.00405767
0.00405787
0.000515768
0.000515768
0.000518529
0.00051853
0.00455217
0.0056933
0.00457065
0.00571014
0.000692572
0.000927315
0.000694821
0.000929451
0.00727404
0.00798086
0.0072913
0.00799968
0.00119375
0.00133772
0.00119606
0.00134011
0.00794066
0.00723793
0.00795997
0.00725538
0.00133272
0.00118895
0.00133516
0.00119129
0.00565874
0.00451438
0.00567604
0.00453347
0.000922949
0.000687996
0.000925126
0.000690303
0.00399223
0.0039925
0.00401466
0.0040149
0.000510172
0.000510168
0.000513017
0.000513017
0.00451497
0.00565959
0.00453403
0.00567684
0.000688004
0.000922956
0.000690323
0.000925157
0.00723977
0.00794314
0.00725709
0.0079621
0.00118898
0.00133278
0.00119135
0.00133524
0.00790212
0.00720297
0.00792159
0.00722071
0.00132765
0.00118406
0.00133018
0.0011865
0.00562367
0.00447558
0.00564171
0.00449554
0.000918441
0.000683245
0.000920728
0.000685668
0.00394644
0.00394669
0.00396998
0.00397023
0.000504325
0.00050432
0.000507312
0.000507308
0.00447611
0.00562444
0.0044961
0.00564256
0.000683251
0.000918448
0.000685673
0.000920729
0.00720412
0.00790396
0.00722242
0.007924
0.00118407
0.00132769
0.00118651
0.00133022
0.00786011
0.00716464
0.00788182
0.0071844
0.00132216
0.00117871
0.00132497
0.00118145
0.00558616
0.00443435
0.00560552
0.0044556
0.000913575
0.000678151
0.000916072
0.000680765
0.00389772
0.00389793
0.00392282
0.00392302
0.000498069
0.000498067
0.00050128
0.000501278
0.00443483
0.00558686
0.00445607
0.00560623
0.000678172
0.000913623
0.00068078
0.000916103
0.00716567
0.00786157
0.00718538
0.0078832
0.00117879
0.00132225
0.0011815
0.00132503
0.00781438
0.00712308
0.00783779
0.00714435
0.00131608
0.0011728
0.00131916
0.0011758
0.00554585
0.00439027
0.0055666
0.00441296
0.000908253
0.000672619
0.000910973
0.000675455
0.00384551
0.00384572
0.00387239
0.00387258
0.00049129
0.000491288
0.00049477
0.000494769
0.00439078
0.00554665
0.00441344
0.00556736
0.000672647
0.000908321
0.000675482
0.000911036
0.00712428
0.00781604
0.00714548
0.00783926
0.00117291
0.00131622
0.0011759
0.00131928
0.00776593
0.00707909
0.0077906
0.00710149
0.0013096
0.00116651
0.00131287
0.00116968
0.00550311
0.00434343
0.00552501
0.00436746
0.000902551
0.000666673
0.00090545
0.000669708
0.00378976
0.00378996
0.00381839
0.00381857
0.000483988
0.000483983
0.000487722
0.00048772
0.00434394
0.00550395
0.00436796
0.00552585
0.000666699
0.000902621
0.000669737
0.000905522
0.00708036
0.00776769
0.00710274
0.00779224
0.00116662
0.00130975
0.00116979
0.00131301
0.0077153
0.00703314
0.00774102
0.00705648
0.00130281
0.00115994
0.00130623
0.00116324
0.00545834
0.00429419
0.00548121
0.00431936
0.000896543
0.000660383
0.000899587
0.00066358
0.0037308
0.00373098
0.00376096
0.00376113
0.000476243
0.000476236
0.000480185
0.000480181
0.00429468
0.00545917
0.00431985
0.00548206
0.000660405
0.00089661
0.000663606
0.000899658
0.00703441
0.00771707
0.00705776
0.0077427
0.00116005
0.00130296
0.00116336
0.00130637
0.00766285
0.00698548
0.00768942
0.00700964
0.00129577
0.00115312
0.0012993
0.00115654
0.00541189
0.00424305
0.00543554
0.0042691
0.000890286
0.000653823
0.000893447
0.000657146
0.00366923
0.0036694
0.00370061
0.00370077
0.000468153
0.000468144
0.000472255
0.000472249
0.00424351
0.00541268
0.00426956
0.00543637
0.000653842
0.00089035
0.000657168
0.000893515
0.00698673
0.0076646
0.0070109
0.0076911
0.00115323
0.00129591
0.00115665
0.00129945
0.00760895
0.00693646
0.0076362
0.00696125
0.00128853
0.00114609
0.00129216
0.00114961
0.00536416
0.00419051
0.0053884
0.00421719
0.000883833
0.000647055
0.000887086
0.000650474
0.0036057
0.00360586
0.00363798
0.00363812
0.000459805
0.000459794
0.000464026
0.000464018
0.00419094
0.00536493
0.00421762
0.0053892
0.000647071
0.000883895
0.000650494
0.000887152
0.00693768
0.00761068
0.00696249
0.00763786
0.0011462
0.00128868
0.00114972
0.0012923
0.00755391
0.00688638
0.0075817
0.00691167
0.00128114
0.0011389
0.00128484
0.0011425
0.00531551
0.00413701
0.00534017
0.00416412
0.000877228
0.000640131
0.000880552
0.000643622
0.00354073
0.00354088
0.00357366
0.00357379
0.00045127
0.000451257
0.000455576
0.000455566
0.00413743
0.00531625
0.00416453
0.00534094
0.000640145
0.000877288
0.00064364
0.000880616
0.00688758
0.00755562
0.00691289
0.00758334
0.00113901
0.00128128
0.0011426
0.00128498
0.00749784
0.00683535
0.00752615
0.00686111
0.00127363
0.00113158
0.00127738
0.00113524
0.00526608
0.00408283
0.00529112
0.00411025
0.0008705
0.000633089
0.000873883
0.000636635
0.00347472
0.00347486
0.00350813
0.00350825
0.000442604
0.000442589
0.000446968
0.000446956
0.00408322
0.00526681
0.00411064
0.00529187
0.000633101
0.000870559
0.00063665
0.000873945
0.00683653
0.00749953
0.00686231
0.00752777
0.00113168
0.00127377
0.00113534
0.00127752
0.00744037
0.00678304
0.00746947
0.00680953
0.00126598
0.00112413
0.00126981
0.00112786
0.00521566
0.00402788
0.00524126
0.00405573
0.000863652
0.000625945
0.000867098
0.000629541
0.00340774
0.00340787
0.00344165
0.00344177
0.000433846
0.000433829
0.000438253
0.000438239
0.00402825
0.00521637
0.0040561
0.00524199
0.000625954
0.000863709
0.000629555
0.000867158
0.0067842
0.00744204
0.0068107
0.00747107
0.00112423
0.00126612
0.00112796
0.00126995
0.00738002
0.00672811
0.00741085
0.00675617
0.00125812
0.00111645
0.00126208
0.00112031
0.00516309
0.00397127
0.00519
0.00400014
0.000856614
0.000618658
0.00086017
0.000622336
0.00333906
0.00333918
0.00337399
0.0033741
0.000424984
0.000424967
0.00042945
0.000429435
0.00397162
0.00516378
0.00400049
0.00519071
0.000618665
0.000856669
0.000622348
0.000860229
0.00672924
0.00738167
0.00675732
0.00741243
0.00111655
0.00125826
0.00112042
0.00126221
0.007313
0.00666702
0.00734785
0.0066988
0.00124974
0.00110829
0.00125401
0.00111244
0.00510521
0.00391014
0.00513536
0.00394181
0.00084915
0.000611037
0.000852966
0.000614922
0.00326589
0.00326599
0.00330361
0.00330371
0.000415865
0.000415845
0.000420494
0.000420477
0.00391046
0.00510587
0.00394214
0.00513604
0.000611043
0.000849204
0.000614931
0.000853022
0.00666813
0.00731462
0.00669993
0.00734941
0.00110839
0.00124988
0.00111254
0.00125415
0.00723102
0.00659205
0.00727476
0.0066321
0.00124013
0.001099
0.00124515
0.00110383
0.0050348
0.00383752
0.00507246
0.00387616
0.00084064
0.000602525
0.000845092
0.000606961
0.00318086
0.00318095
0.00322584
0.00322592
0.000405951
0.00040593
0.000411082
0.000411063
0.00383783
0.00503543
0.00387646
0.00507312
0.000602528
0.000840692
0.000606968
0.000845147
0.00659313
0.0072326
0.0066332
0.00727629
0.00109909
0.00124027
0.00110393
0.00124528
0.0071181
0.00648791
0.00717992
0.00654508
0.0012277
0.00108725
0.00123441
0.00109354
0.00493735
0.00373936
0.00499094
0.00379305
0.000829653
0.000591748
0.000835599
0.000597563
0.0030687
0.00306878
0.0031297
0.00312976
0.000393842
0.000393819
0.000400324
0.000400304
0.00373964
0.00493796
0.00379334
0.00499158
0.000591749
0.000829703
0.000597568
0.000835652
0.00648897
0.00711964
0.00654615
0.00718141
0.00108734
0.00122784
0.00109363
0.00123454
0.00694792
0.00632589
0.00704214
0.00641677
0.00120922
0.00107012
0.00121949
0.00107965
0.00478751
0.00359513
0.00487109
0.0036743
0.000812936
0.000575761
0.000822338
0.000584677
0.00290901
0.00290906
0.0029959
0.00299595
0.000376653
0.000376627
0.000386131
0.000386109
0.00359536
0.0047881
0.00367456
0.00487171
0.00057576
0.000812985
0.00058468
0.00082239
0.00632694
0.00694947
0.00641783
0.00704362
0.00107021
0.00120936
0.00107975
0.00121962
0.00669513
0.0060513
0.00683299
0.00620742
0.00117691
0.00103367
0.00119587
0.00105661
0.00456995
0.00341167
0.00468471
0.00350414
0.000782502
0.00054998
0.000800247
0.000564347
0.00271197
0.00271193
0.00281133
0.00281132
0.00035114
0.000351104
0.000365004
0.000364977
0.00341179
0.00457049
0.00350433
0.0046853
0.000549966
0.000782545
0.000564344
0.000800296
0.00605238
0.00669684
0.00620849
0.00683453
0.00103377
0.00117705
0.00105671
0.00119601
0.00197347
0.0019235
0.000323954
0.000387837
0.00167446
0.00165635
0.000290033
0.000342348
0.00062089
0.000198711
0.000173932
0.000162482
0.000489589
0.000181201
0.000170108
0.000162111
0.000159747
0.000159746
0.000167321
0.000167321
0.000158223
0.000158222
0.000167698
0.000167698
0.000198696
0.00062081
0.000162482
0.000173929
0.000181195
0.000489538
0.000162111
0.000170107
0.00192337
0.00197336
0.000387812
0.000323935
0.00165624
0.00167435
0.00034233
0.000290019
0.00732489
0.0063351
0.00508758
0.00433082
0.00648546
0.00559306
0.00445967
0.0038032
0.00421345
0.00225453
0.0023188
0.000744359
0.00359173
0.00176202
0.0019004
0.000546231
0.000711252
0.000711123
0.000207012
0.000206992
0.000477018
0.00047695
0.000181371
0.000181363
0.00225429
0.00421331
0.000744236
0.00231863
0.00176185
0.00359165
0.00054616
0.00190027
0.00633515
0.00732514
0.00433071
0.00508752
0.00559309
0.00648558
0.0038031
0.00445957
0.0102432
0.00909206
0.00899269
0.00789376
0.00900277
0.00796688
0.00794265
0.00695024
0.00690679
0.00500397
0.00571852
0.00373314
0.00591629
0.00413203
0.0049061
0.0030603
0.00375306
0.00375299
0.00212073
0.00212056
0.00287325
0.00287318
0.00147527
0.00147515
0.00500394
0.00690699
0.003733
0.00571856
0.00413199
0.00591645
0.00306021
0.00490614
0.00909265
0.0102442
0.00789406
0.00899324
0.00796731
0.00900344
0.00695046
0.007943
0.0118853
0.010702
0.0111817
0.0100073
0.0103517
0.00929233
0.00977959
0.00872603
0.0085607
0.0068746
0.00783899
0.00604936
0.00728178
0.00568565
0.00669135
0.00500273
0.00602949
0.00602962
0.00504621
0.00504625
0.00484406
0.00484413
0.00399546
0.00399547
0.006875
0.00856146
0.00604956
0.00783948
0.00568593
0.00728234
0.00500286
0.00669173
0.0107033
0.0118872
0.0100082
0.0111831
0.0092933
0.0103531
0.00872673
0.0097805
0.0127846
0.0116001
0.0124061
0.0112209
0.011069
0.0100101
0.0107691
0.00970906
0.00950918
0.00796497
0.0091071
0.00750284
0.00804374
0.00657779
0.00772279
0.00620152
0.00728664
0.00728694
0.00675895
0.00675916
0.00591136
0.00591156
0.0054665
0.00546664
0.00796579
0.00951052
0.00750345
0.00910818
0.00657837
0.00804473
0.00620195
0.00772359
0.0116021
0.0127875
0.0112226
0.0124084
0.0100116
0.011071
0.00971031
0.0107706
0.0132348
0.0120531
0.0130524
0.0118694
0.0114204
0.0103639
0.0112788
0.0102213
0.00999165
0.00851681
0.00979607
0.00829368
0.00842237
0.00701986
0.00826985
0.00684229
0.00790752
0.00790793
0.00765763
0.00765798
0.00642431
0.0064246
0.00621953
0.00621976
0.00851796
0.00999346
0.00829466
0.00979769
0.00702069
0.00842371
0.00684301
0.00827105
0.0120558
0.0132385
0.0118718
0.0130556
0.0103659
0.0114229
0.010223
0.0112809
0.0134249
0.0122447
0.0133537
0.012173
0.0115653
0.0105096
0.0115114
0.0104555
0.0101956
0.0087479
0.0101195
0.00866195
0.00857786
0.00719925
0.0085204
0.00713326
0.00816426
0.00816475
0.00806901
0.00806944
0.00662901
0.00662934
0.00655397
0.00655427
0.00874925
0.0101978
0.00866319
0.0101215
0.00720022
0.00857941
0.00713416
0.00852187
0.0122478
0.0134291
0.0121759
0.0133575
0.0105119
0.0115681
0.0104576
0.0115139
0.013473
0.0122938
0.0134618
0.0122826
0.0115995
0.0105443
0.0115918
0.0105368
0.0102499
0.00881058
0.0102367
0.00879423
0.00861571
0.00724382
0.00860737
0.00723323
0.00823415
0.00823473
0.00821555
0.00821606
0.00668003
0.00668039
0.00666755
0.00666788
0.00881215
0.0102524
0.00879566
0.0102389
0.00724486
0.00861741
0.00723421
0.008609
0.0122971
0.0134778
0.0122859
0.0134662
0.0105467
0.0116027
0.0105392
0.0115947
0.0134614
0.0122839
0.0134752
0.0122967
0.0115878
0.0105333
0.0115998
0.0105449
0.0102424
0.008803
0.0102532
0.00881285
0.0086065
0.00723433
0.00861688
0.00724411
0.0082258
0.00822641
0.00823599
0.00823656
0.00666941
0.00666975
0.00667971
0.00668004
0.00880471
0.0102451
0.00881446
0.0102558
0.00723541
0.00860839
0.00724514
0.00861864
0.0122871
0.013466
0.0122999
0.0134798
0.0105361
0.0115912
0.0105474
0.0116028
0.0134207
0.0122445
0.0134436
0.0122668
0.0115524
0.0104991
0.0115716
0.0105177
0.0102039
0.00876208
0.0102255
0.00878508
0.00857369
0.00719896
0.00859167
0.00721827
0.00818178
0.00818236
0.00820658
0.00820715
0.00663052
0.00663089
0.00665175
0.00665207
0.00876373
0.0102065
0.00878673
0.0102282
0.00720014
0.00857578
0.00721937
0.00859366
0.0122481
0.0134253
0.0122696
0.0134473
0.010503
0.011557
0.0105211
0.0115755
0.013371
0.0121971
0.0133966
0.0122216
0.0115112
0.01046
0.011532
0.0104797
0.0101582
0.00871392
0.0101822
0.0087392
0.00853575
0.00715869
0.0085553
0.00717945
0.00812998
0.00813051
0.00815713
0.00815766
0.00658634
0.00658674
0.0066091
0.00660948
0.00871554
0.0101611
0.00874081
0.0101849
0.00716002
0.0085382
0.00718072
0.00855761
0.0122022
0.0133776
0.0122257
0.0134017
0.0104643
0.0115168
0.0104841
0.0115372
0.013321
0.0121492
0.0133462
0.0121733
0.0114725
0.0104223
0.0114921
0.0104415
0.0101119
0.00866518
0.0101356
0.00869028
0.0084983
0.00711838
0.00851726
0.0071389
0.00807757
0.0080781
0.00810462
0.00810514
0.00654191
0.00654228
0.00656455
0.00656492
0.0086669
0.0101151
0.00869201
0.0101389
0.00711965
0.00850048
0.00714022
0.00851972
0.0121547
0.0133283
0.0121792
0.0133537
0.010425
0.0114759
0.0104449
0.0114966
0.0132744
0.0121044
0.0132984
0.0121275
0.0114326
0.0103841
0.0114529
0.0104034
0.0100671
0.00861725
0.0100904
0.0086421
0.00846123
0.0070784
0.00848022
0.00709887
0.00802568
0.00802617
0.00805253
0.00805299
0.00649773
0.0064981
0.00652031
0.00652064
0.00861878
0.0100698
0.00864361
0.0100931
0.00707962
0.00846313
0.00710004
0.00848213
0.0121084
0.0132799
0.0121319
0.013304
0.0103868
0.0114359
0.0104061
0.0114558
0.0132253
0.0120578
0.01325
0.0120812
0.0113918
0.0103457
0.011412
0.0103647
0.0100219
0.0085692
0.0100451
0.00859402
0.00842373
0.00703821
0.0084428
0.00705874
0.00797379
0.00797443
0.00800064
0.0080012
0.00645333
0.00645379
0.00647602
0.00647643
0.00857103
0.010025
0.00859576
0.0100482
0.00703962
0.00842601
0.00706008
0.00844506
0.0120625
0.0132321
0.0120862
0.0132567
0.0103486
0.0113959
0.010368
0.0114161
0.0131786
0.0120126
0.013203
0.0120363
0.0113522
0.0103077
0.0113727
0.0103273
0.00997676
0.00852101
0.0100003
0.00854606
0.00838636
0.00699788
0.00840554
0.00701857
0.00792154
0.00792207
0.00794869
0.00794927
0.00640848
0.00640883
0.00643147
0.00643187
0.00852248
0.00997897
0.00854773
0.0100029
0.00699899
0.00838815
0.00701985
0.00840765
0.0120145
0.0131814
0.0120395
0.0132076
0.0103091
0.0113543
0.0103293
0.0113754
0.0131261
0.0119629
0.0131535
0.0119885
0.0113097
0.0102678
0.011331
0.0102877
0.00993012
0.0084717
0.00995438
0.00849735
0.00834787
0.00695643
0.00836766
0.00697775
0.00786815
0.00786866
0.00789591
0.00789637
0.00636244
0.00636277
0.00638607
0.00638638
0.00847313
0.00993246
0.00849873
0.0099566
0.00695738
0.00834919
0.0069787
0.00836915
0.0119677
0.0131319
0.0119917
0.0131567
0.010269
0.0113115
0.0102892
0.0113328
0.0130744
0.0119142
0.0131009
0.0119394
0.0112662
0.0102265
0.0112889
0.010248
0.00988245
0.00842107
0.00990722
0.0084474
0.008308
0.00691369
0.00832851
0.00693566
0.00781337
0.00781393
0.00784183
0.00784235
0.00631503
0.0063154
0.00633936
0.00633968
0.00842255
0.0098846
0.00844881
0.00990941
0.00691473
0.00830972
0.00693661
0.00832994
0.011918
0.0130796
0.0119435
0.0131063
0.0102287
0.0112689
0.010249
0.0112901
0.0130215
0.011864
0.0130485
0.0118898
0.0112207
0.0101838
0.0112438
0.0102055
0.00983342
0.00836913
0.00985886
0.00839608
0.00826711
0.00686975
0.00828801
0.00689227
0.00775713
0.00775771
0.00778632
0.00778688
0.0062662
0.00626658
0.00629123
0.0062916
0.00837072
0.00983602
0.00839764
0.00986128
0.00687084
0.00826907
0.00689336
0.00828995
0.0118684
0.0130275
0.0118942
0.0130542
0.0101878
0.0112254
0.0102086
0.0112473
0.0129664
0.0118122
0.0129943
0.0118384
0.0111758
0.0101415
0.0111985
0.0101631
0.00978334
0.00831581
0.0098092
0.00834348
0.00822521
0.00682447
0.00824672
0.00684771
0.00769923
0.00769973
0.00772929
0.0077298
0.00621577
0.0062161
0.00624163
0.00624196
0.00831714
0.00978531
0.00834495
0.00981167
0.00682539
0.0082267
0.00684871
0.00824849
0.0118153
0.012971
0.0118427
0.0130001
0.0101441
0.0111792
0.0101666
0.0112028
0.0129109
0.0117597
0.0129397
0.011787
0.0111268
0.0100959
0.0111515
0.0101188
0.00973144
0.0082607
0.00975843
0.00828929
0.00818151
0.00677763
0.00820391
0.00680165
0.00763951
0.00764
0.00767046
0.00767092
0.00616367
0.00616396
0.00619035
0.00619063
0.00826196
0.00973306
0.00829054
0.00976015
0.00677839
0.00818255
0.00680246
0.0082052
0.0117616
0.0129138
0.0117892
0.0129428
0.0100973
0.011129
0.0101211
0.0111545
0.0128518
0.0117043
0.0128819
0.0117326
0.0110779
0.0100504
0.0111026
0.0100735
0.00967767
0.00820403
0.00970546
0.00823334
0.00813635
0.00672933
0.00815949
0.00675405
0.00757819
0.00757866
0.00760989
0.00761036
0.00611003
0.00611029
0.00613745
0.0061377
0.00820519
0.00967904
0.00823453
0.009707
0.00673003
0.0081372
0.00675477
0.00816047
0.0117058
0.0128543
0.0117344
0.0128845
0.0100507
0.011079
0.0100745
0.0111041
0.0127907
0.0116471
0.0128221
0.0116764
0.0110264
0.0100023
0.0110527
0.0100268
0.00962258
0.00814606
0.00965102
0.00817602
0.00808985
0.00667972
0.00811363
0.0067051
0.00751543
0.00751589
0.00754786
0.00754829
0.00605492
0.00605517
0.00608309
0.00608331
0.00814721
0.00962391
0.00817713
0.00965237
0.00668037
0.00809037
0.00670574
0.00811432
0.0116476
0.0127923
0.0116775
0.012824
0.0100013
0.0110259
0.0100263
0.0110526
0.0127278
0.0115882
0.0127602
0.0116186
0.0109725
0.00995212
0.0109999
0.00997765
0.00956575
0.00808626
0.00959518
0.00811725
0.00804177
0.00662848
0.00806639
0.00665473
0.00745066
0.00745115
0.00748421
0.00748465
0.00599797
0.00599829
0.00602712
0.00602738
0.00808752
0.00956736
0.00811842
0.00959662
0.00662929
0.00804259
0.00665543
0.00806704
0.0115885
0.0127289
0.0116187
0.0127611
0.0099513
0.0109721
0.00997661
0.0109991
0.0126617
0.0115264
0.0126957
0.0115583
0.0109164
0.00989995
0.010945
0.00992656
0.00950633
0.00802363
0.00953715
0.00805614
0.00799167
0.00657497
0.00801739
0.00660245
0.0073828
0.00738331
0.00741802
0.00741851
0.00593838
0.00593873
0.00596897
0.00596929
0.00802502
0.00950843
0.00805746
0.00953903
0.00657588
0.0079928
0.00660331
0.0080184
0.0115288
0.012665
0.0115593
0.0126972
0.00989987
0.0109165
0.00992591
0.0109445
0.0125916
0.0114608
0.0126278
0.0114947
0.0108565
0.00984442
0.0108872
0.00987287
0.0094433
0.00795719
0.00947603
0.0079917
0.00793843
0.00651819
0.00796584
0.00654741
0.00731069
0.00731119
0.00734816
0.00734864
0.00587505
0.00587539
0.00590762
0.00590795
0.00795853
0.00944546
0.00799306
0.00947822
0.00651909
0.00793978
0.0065483
0.00796709
0.011464
0.012596
0.0114976
0.0126316
0.00984594
0.0108585
0.00987352
0.0108878
0.0125164
0.0113905
0.0125552
0.0114268
0.0107922
0.00978476
0.0108251
0.00981527
0.00937582
0.00788616
0.00941083
0.00792302
0.00788135
0.00645748
0.0079107
0.00648869
0.00723354
0.00723402
0.00727359
0.00727404
0.00580728
0.00580761
0.00584212
0.00584242
0.00788746
0.0093779
0.00792432
0.00941296
0.00645838
0.00788281
0.00648957
0.00791214
0.0113937
0.0125209
0.01143
0.0125594
0.00978692
0.0107952
0.00981725
0.0108275
0.0124364
0.0113157
0.0124774
0.0113541
0.0107241
0.00972146
0.0107587
0.00975368
0.00930394
0.00781044
0.00934107
0.0078496
0.0078207
0.00639287
0.00785175
0.00642598
0.00715119
0.00715166
0.0071938
0.00719425
0.00573498
0.0057353
0.00577204
0.00577235
0.00781175
0.00930603
0.00785089
0.00934318
0.00639378
0.00782219
0.00642688
0.00785326
0.0113189
0.0124409
0.0113573
0.0124817
0.0097237
0.0107271
0.00975591
0.0107616
0.0123526
0.0112374
0.0123955
0.0112775
0.0106527
0.00965523
0.0106889
0.00968886
0.00922834
0.00773056
0.00926724
0.00777171
0.00775704
0.00632484
0.00778953
0.00635959
0.00706406
0.00706453
0.00710896
0.00710941
0.00565856
0.00565887
0.0056976
0.0056979
0.00773184
0.00923041
0.00777299
0.00926935
0.00632572
0.00775852
0.00636048
0.00779105
0.0112405
0.0123571
0.0112806
0.0123997
0.00965747
0.0106558
0.00969112
0.0106918
0.0122655
0.0111559