/*--------------------------------*- C++ -*----------------------------------*\
  =========                 |
  \\      /  F ield         | OpenFOAM: The Open Source CFD Toolbox
   \\    /   O peration     | Website:  https://openfoam.org
    \\  /    A nd           | Version:  9
     \\/     M anipulation  |
\*---------------------------------------------------------------------------*/
FoamFile
{
    format      ascii;
    class       surfaceScalarField;
    location    "1";
    object      phi;
}
// * * * * * * * * * * * * * * * * * * * * * * * * * * * * * * * * * * * * * //

dimensions      [0 3 -1 0 0 0 0];

internalField   nonuniform List<scalar> 
104044
(
1.01753e-06
-0.000147728
3.85776e-06
0.000144536
-1.68354e-06
-8.65892e-05
-9.31727e-06
-4.24848e-07
9.45848e-05
2.76404e-06
2.23464e-07
2.13873e-06
-2.17124e-06
-7.84898e-06
-1.51517e-07
4.44872e-06
3.82919e-08
-0.000146158
0.000149977
-9.92808e-05
-3.06358e-09
9.00048e-05
2.85894e-07
-1.81658e-07
-2.84423e-08
-0.000108648
-2.14709e-06
0.000108735
1.66401e-06
-0.000114768
-7.94798e-07
6.70233e-09
0.000115458
6.96702e-08
9.41449e-10
-1.9092e-06
6.28479e-07
-1.72158e-06
2.85877e-10
2.89146e-07
-1.46772e-08
-0.000117321
0.000115186
-0.000118761
-2.3783e-09
0.000117954
-7.98089e-09
1.17631e-09
-7.41675e-12
-0.000116188
-1.05838e-06
0.00011702
2.33108e-07
-0.000116188
-1.0584e-06
-6.71576e-09
0.00011702
2.3313e-07
-2.20287e-12
-1.78923e-06
3.13358e-07
-1.78924e-06
-2.89507e-10
3.13366e-07
-7.04204e-12
-0.000118746
0.000117685
-0.000118745
2.36715e-09
0.000117684
-2.44441e-12
-1.18041e-09
2.8429e-08
-0.000114767
-7.94876e-07
0.000115457
6.97676e-08
-0.000108646
-2.14707e-06
4.24823e-07
0.000108733
1.66398e-06
-9.44481e-10
-1.72161e-06
2.89187e-07
-1.90921e-06
1.51504e-07
6.28469e-07
1.46594e-08
-0.00011876
0.000117953
-0.000117319
3.06359e-09
0.000115184
7.97694e-09
1.8165e-07
-1.01745e-06
-8.65883e-05
-9.31739e-06
9.45838e-05
2.76414e-06
-0.00014773
3.85793e-06
0.000144538
-1.68369e-06
-2.23429e-07
-7.84868e-06
4.44833e-06
2.13822e-06
-2.17062e-06
-3.82396e-08
-9.92794e-05
9.00034e-05
-0.00014616
0.000149979
-2.85863e-07
2.1892e-06
-0.000141174
-4.11217e-06
0.000137236
5.86149e-06
-0.000101637
2.46464e-06
-6.45969e-07
0.000106614
-4.60686e-06
1.90276e-06
-2.04303e-06
3.50235e-06
-2.88171e-06
-6.53662e-07
-1.61389e-06
-1.00463e-06
-0.000148399
0.000145291
-8.63988e-05
5.71499e-07
8.72873e-05
-4.64351e-07
2.59958e-07
-7.04596e-08
-0.000109556
-5.52117e-06
0.000110815
3.68598e-06
-0.000115669
-1.63308e-06
-2.28883e-09
0.000115705
1.52911e-06
-5.68911e-08
-4.6188e-06
3.20096e-06
-7.0989e-07
4.52481e-09
4.37508e-07
-1.94577e-09
-0.00011084
0.000105892
-0.000117248
-3.07339e-08
0.000115643
-1.30175e-08
-1.61238e-08
-1.92091e-11
-0.000117787
-6.55397e-07
0.000118439
1.13691e-09
-0.000117787
-6.55439e-07
2.26078e-09
0.000118439
1.18579e-09
-1.0056e-11
-8.30832e-07
6.81231e-08
-8.30859e-07
-4.54683e-09
6.81522e-08
-1.83729e-11
-0.000116838
0.000116152
-0.000116838
3.06922e-08
0.000116151
-1.18055e-11
1.6097e-08
7.04239e-08
-0.000115668
-1.63312e-06
0.000115704
1.5292e-06
-0.000109554
-5.52136e-06
6.45954e-07
0.000110814
3.68608e-06
5.68642e-08
-7.09851e-07
4.37546e-07
-4.61863e-06
6.53636e-07
3.20089e-06
1.911e-09
-0.000117246
0.000115642
-0.000110838
-5.71486e-07
0.00010589
1.29936e-08
-2.59948e-07
-2.18908e-06
-0.000101636
2.46456e-06
0.000106613
-4.60703e-06
-0.000141176
-4.11206e-06
0.000137238
5.86147e-06
-1.90264e-06
-2.88174e-06
-1.61399e-06
-2.04233e-06
3.5018e-06
1.00481e-06
-8.63972e-05
8.72855e-05
-0.000148402
0.000145294
4.64443e-07
1.47479e-06
-0.000133739
-7.00002e-06
0.000130838
8.42629e-06
-0.000109876
7.73076e-06
-2.86359e-07
0.000112085
-8.17845e-06
1.90508e-06
-5.88312e-06
7.47422e-06
5.77895e-06
-4.7635e-07
-6.65954e-06
-2.63916e-06
-0.000141166
0.000136805
-9.03294e-05
1.37093e-06
9.405e-05
-1.75797e-06
9.78959e-07
-3.22151e-08
-0.000111672
-2.81253e-06
0.000112192
2.03887e-06
-0.000115741
-2.12244e-06
-2.49222e-08
0.000115669
2.18742e-06
-6.414e-08
-4.25991e-06
2.99079e-06
-2.27501e-06
-1.10275e-08
2.18534e-06
9.65811e-08
-0.000102578
0.00010104
-0.000113433
-2.61628e-08
0.000111433
3.32405e-08
-3.14391e-08
-2.03249e-11
-0.000118545
-6.18701e-07
0.000118243
8.95721e-07
-0.000118545
-6.18718e-07
2.48681e-08
0.000118243
8.95762e-07
-2.3218e-11
-5.7042e-07
4.53547e-07
-5.70451e-07
1.0982e-08
4.53601e-07
-2.22997e-11
-0.00011555
0.000114905
-0.00011555
2.61131e-08
0.000114905
-2.17582e-11
3.13737e-08
3.21572e-08
-0.00011574
-2.12252e-06
0.000115668
2.18748e-06
-0.000111671
-2.81254e-06
2.86365e-07
0.00011219
2.03876e-06
6.40859e-08
-2.27511e-06
2.18547e-06
-4.26006e-06
4.76346e-07
2.99081e-06
-9.66434e-08
-0.000113432
0.000111432
-0.000102576
-1.37093e-06
0.000101038
-3.32888e-08
-9.78953e-07
-1.47464e-06
-0.000109875
7.73124e-06
0.000112084
-8.17914e-06
-0.000133741
-7.00034e-06
0.00013084
8.42677e-06
-1.90495e-06
5.77924e-06
-6.66001e-06
-5.88307e-06
7.4743e-06
2.63956e-06
-9.03275e-05
9.40483e-05
-0.000141169
0.000136809
1.75825e-06
5.95677e-07
-0.000128483
-7.65064e-06
0.000126521
9.01776e-06
-0.000113606
9.11906e-06
-2.55261e-08
0.000114709
-9.60052e-06
1.00241e-06
-7.39936e-06
8.75182e-06
8.61123e-06
-1.28359e-07
-9.00165e-06
-4.09176e-06
-0.0001328
0.000129241
-9.76309e-05
1.85718e-06
0.000100801
-3.39418e-06
1.63619e-06
1.3696e-07
-0.000112617
-1.18045e-06
0.000113029
6.05766e-07
-0.000115468
-1.17534e-06
-1.39388e-08
0.000115263
1.53096e-06
3.10337e-08
-1.7699e-06
1.18568e-06
-1.60509e-06
-2.60218e-08
1.86371e-06
2.72045e-07
-0.000100728
0.000101132
-0.000110028
-1.21384e-08
0.000109137
1.78352e-07
-2.14643e-08
-3.07329e-11
-0.00011783
-5.54014e-07
0.000117393
9.7708e-07
-0.000117829
-5.54028e-07
1.38629e-08
0.000117392
9.77121e-07
-2.82305e-11
-6.29734e-07
1.0175e-06
-6.29717e-07
2.59172e-08
1.01753e-06
-3.22538e-11
-0.000114254
0.000113688
-0.000114254
1.20631e-08
0.000113687
-2.67765e-11
2.14029e-08
-1.37069e-07
-0.000115466
-1.17539e-06
0.000115262
1.53099e-06
-0.000112615
-1.1804e-06
2.55607e-08
0.000113028
6.05513e-07
-3.11016e-08
-1.60511e-06
1.86372e-06
-1.76976e-06
1.28378e-07
1.18542e-06
-2.72147e-07
-0.000110027
0.000109135
-0.000100726
-1.85729e-06
0.00010113
-1.78431e-07
-1.6362e-06
-5.95463e-07
-0.000113605
9.11992e-06
0.000114708
-9.60164e-06
-0.000128485
-7.65152e-06
0.000126522
9.01887e-06
-1.00223e-06
8.61211e-06
-9.00269e-06
-7.39958e-06
8.75233e-06
4.09246e-06
-9.76295e-05
0.0001008
-0.000132804
0.000129245
3.39472e-06
-5.85281e-08
-0.000124904
-7.63103e-06
0.000123538
9.05552e-06
-0.000115497
9.18224e-06
4.78214e-08
0.00011607
-9.86193e-06
2.36412e-07
-7.59769e-06
8.9777e-06
9.13889e-06
3.20869e-08
-9.7228e-06
-5.03584e-06
-0.00012622
0.000123625
-0.000103391
2.0674e-06
0.00010547
-4.5768e-06
1.97256e-06
3.35145e-07
-0.000113445
-7.13987e-07
0.000113849
2.34888e-08
-0.000115119
-6.663e-07
2.53953e-08
0.000115036
1.05871e-06
2.40288e-07
-8.45602e-07
2.20736e-07
-8.57295e-07
3.67219e-09
1.23808e-06
3.98163e-07
-0.000101915
0.00010287
-0.000108621
2.11629e-08
0.000108332
3.44409e-07
2.58369e-09
-4.05111e-11
-0.000116998
-4.41746e-07
0.000116661
8.03652e-07
-0.000116997
-4.41776e-07
-2.54968e-08
0.000116661
8.037e-07
-3.60044e-11
-4.74621e-07
8.73251e-07
-4.74656e-07
-3.76055e-09
8.73301e-07
-4.13782e-11
-0.000113216
0.000112795
-0.000113215
-2.12627e-08
0.000112795
-3.60789e-11
-2.66613e-09
-3.35286e-07
-0.000115118
-6.66327e-07
0.000115035
1.05876e-06
-0.000113444
-7.13952e-07
-4.77611e-08
0.000113848
2.32041e-08
-2.40413e-07
-8.57325e-07
1.23812e-06
-8.45518e-07
-3.2028e-08
2.20375e-07
-3.98263e-07
-0.00010862
0.000108331
-0.000101913
-2.06753e-06
0.000102868
-3.44479e-07
-1.97267e-06
5.88015e-08
-0.000115496
9.1834e-06
0.00011607
-9.86337e-06
-0.000124906
-7.63243e-06
0.00012354
9.05725e-06
-2.36171e-07
9.14004e-06
-9.72415e-06
-7.59845e-06
8.97884e-06
5.03683e-06
-0.000103389
0.000105468
-0.000126224
0.000123628
4.57764e-06
-5.00539e-07
-0.000122392
-7.4512e-06
0.000121405
8.93949e-06
-0.000116447
8.8689e-06
5.44529e-08
0.000116696
-9.67337e-06
-2.98713e-07
-7.47288e-06
8.91738e-06
8.94781e-06
7.98498e-08
-9.70268e-06
-5.57964e-06
-0.000121448
0.000119576
-0.000107044
2.10125e-06
0.000108232
-5.29538e-06
2.07819e-06
4.73411e-07
-0.000114218
-7.13097e-07
0.000114526
-1.40112e-08
-0.000115001
-4.6257e-07
6.62712e-08
0.000114995
8.75248e-07
4.08308e-07
-6.724e-07
-2.57017e-08
-5.34762e-07
4.79593e-08
9.3034e-07
4.74124e-07
-0.00010384
0.000104754
-0.000108192
6.25679e-08
0.000108141
4.35893e-07
4.12929e-08
-2.88752e-11
-0.000116389
-4.21361e-07
0.000116164
7.12679e-07
-0.000116389
-4.21356e-07
-6.63305e-08
0.000116164
7.12663e-07
-3.82236e-11
-4.22466e-07
7.4235e-07
-4.22487e-07
-4.80729e-08
7.4238e-07
-2.85955e-11
-0.000112414
0.000112055
-0.000112414
-6.26748e-08
0.000112055
-3.81371e-11
-4.13999e-08
-4.73599e-07
-0.000115
-4.62504e-07
0.000114994
8.75265e-07
-0.000114217
-7.12993e-07
-5.43524e-08
0.000114525
-1.44189e-08
-4.08468e-07
-5.3475e-07
9.30358e-07
-6.72302e-07
-7.97219e-08
-2.60832e-08
-4.74259e-07
-0.00010819
0.00010814
-0.000103838
-2.10141e-06
0.000104752
-4.36009e-07
-2.07834e-06
5.00928e-07
-0.000116446
8.8704e-06
0.000116696
-9.67515e-06
-0.000122394
-7.45287e-06
0.000121406
8.9416e-06
2.9903e-07
8.94929e-06
-9.70438e-06
-7.47395e-06
8.91897e-06
5.58092e-06
-0.000107043
0.000108231
-0.000121451
0.000119579
5.29651e-06
-7.8763e-07
-0.000120556
-7.23275e-06
0.000119807
8.76964e-06
-0.000116829
8.50822e-06
1.71397e-08
0.000116867
-9.35128e-06
-6.53839e-07
-7.26985e-06
8.77256e-06
8.60286e-06
3.75191e-08
-9.42701e-06
-5.85774e-06
-0.000117996
0.000116621
-0.000109082
2.05365e-06
0.000109678
-5.68946e-06
2.06365e-06
5.55849e-07
-0.000114781
-8.41618e-07
0.00011498
1.04309e-07
-0.000115002
-3.90379e-07
9.40227e-08
0.000115009
8.45772e-07
5.15861e-07
-7.65676e-07
3.21982e-08
-4.12561e-07
8.0086e-08
8.41186e-07
5.1919e-07
-0.000105557
0.00010625
-0.000108142
1.00884e-07
0.00010817
4.95381e-07
8.17267e-08
-6.12989e-12
-0.000115976
-4.12649e-07
0.000115808
6.73812e-07
-0.000115975
-4.12637e-07
-9.40153e-08
0.000115808
6.73778e-07
-2.06729e-11
-4.13611e-07
6.82442e-07
-4.13591e-07
-8.01387e-08
6.8241e-07
-5.8645e-11
-0.000111724
0.000111412
-0.000111723
-1.00699e-07
0.000111411
-1.34324e-11
-8.17932e-08
-5.56093e-07
-0.000115001
-3.90238e-07
0.000115008
8.45802e-07
-0.00011478
-8.41457e-07
-1.71509e-08
0.000114979
1.03763e-07
-5.16083e-07
-4.1246e-07
8.41187e-07
-7.65521e-07
-3.74496e-08
3.17585e-08
-5.19365e-07
-0.000108141
0.000108169
-0.000105555
-2.05398e-06
0.000106248
-4.95522e-07
-2.06385e-06
7.88248e-07
-0.000116828
8.50979e-06
0.000116866
-9.35311e-06
-0.000120557
-7.23469e-06
0.000119808
8.77224e-06
6.54338e-07
8.60457e-06
-9.42896e-06
-7.2711e-06
8.77446e-06
5.85917e-06
-0.000109081
0.000109677
-0.000117999
0.000116623
5.69085e-06
-9.69208e-07
-0.000119145
-7.00709e-06
0.000118544
8.57754e-06
-0.00011683
8.16587e-06
-2.46877e-08
0.000116728
-9.00829e-06
-8.80477e-07
-7.04738e-06
8.5894e-06
8.25109e-06
-3.72895e-09
-9.09057e-06
-5.97184e-06
-0.000115446
0.000114411
-0.00011006
1.97678e-06
0.000110277
-5.8728e-06
1.99676e-06
5.93264e-07
-0.00011511
-9.81276e-07
0.000115182
2.91219e-07
-0.000115005
-3.76261e-07
1.14744e-07
0.000114984
8.75424e-07
5.73096e-07
-9.04989e-07
1.9809e-07
-3.75249e-07
1.04533e-07
8.47633e-07
5.41204e-07
-0.000106816
0.00010727
-0.000108211
1.2492e-07
0.000108251
5.25778e-07
1.09838e-07
-8.05452e-11
-0.000115658
-3.95796e-07
0.000115512
6.5647e-07
-0.000115657
-3.95198e-07
-1.15539e-07
0.000115511
6.56491e-07
-4.85789e-11
-4.01231e-07
6.56675e-07
-4.01609e-07
-1.04238e-07
6.56663e-07
2.10084e-09
-0.000111122
0.000110849
-0.000111122
-1.18374e-07
0.000110848
-1.41094e-09
-1.14318e-07
-5.93513e-07
-0.000115004
-3.77271e-07
0.000114984
8.75581e-07
-0.000115109
-9.81625e-07
2.48261e-08
0.000115182
2.90815e-07
-5.73335e-07
-3.74644e-07
8.47673e-07
-9.0454e-07
3.57551e-09
1.97656e-07
-5.38172e-07
-0.000108208
0.000108251
-0.000106814
-1.97569e-06
0.00010727
-5.27996e-07
-1.99771e-06
9.69352e-07
-0.000116828
8.16699e-06
0.000116726
-9.00907e-06
-0.000119146
-7.01046e-06
0.000118545
8.5806e-06
8.81107e-07
8.25297e-06
-9.09246e-06
-7.04927e-06
8.5922e-06
5.9735e-06
-0.000110059
0.000110276
-0.000115448
0.000114411
5.87399e-06
-1.07642e-06
-0.000117996
-6.79008e-06
0.000117479
8.38327e-06
-0.000116578
7.85397e-06
-6.55446e-08
0.000116385
-8.67228e-06
-1.0194e-06
-6.82639e-06
8.39371e-06
7.92574e-06
-4.52369e-08
-8.74976e-06
-5.98496e-06
-0.000113512
0.000112707
-0.000110362
1.89156e-06
0.000110339
-5.92723e-06
1.9141e-06
6.02975e-07
-0.000115201
-1.10157e-06
0.00011517
4.64072e-07
-0.000114943
-3.93877e-07
1.29612e-07
0.000114879
9.31636e-07
5.9463e-07
-1.03336e-06
3.74798e-07
-3.78205e-07
1.21939e-07
8.91854e-07
5.42819e-07
-0.000107614
0.000107861
-0.000108284
1.33208e-07
0.0001083
5.36789e-07
1.25213e-07
-1.04771e-10
-0.000115367
-3.77259e-07
0.000115216
6.57778e-07
-0.000115367
-3.77201e-07
-1.29823e-07
0.000115216
6.57761e-07
-1.0679e-10
-3.80896e-07
6.47796e-07
-3.81149e-07
-1.21923e-07
6.4781e-07
-3.56733e-11
-0.000110594
0.00011035
-0.000110594
-1.3289e-07
0.00011035
-9.23118e-10
-1.28293e-07
-6.03082e-07
-0.000114943
-3.93732e-07
0.000114878
9.3152e-07
-0.0001152
-1.10066e-06
6.58444e-08
0.000115169
4.63098e-07
-5.94783e-07
-3.77854e-07
8.91834e-07
-1.03269e-06
4.53577e-08
3.74092e-07
-5.42777e-07
-0.000108283
0.000108299
-0.000107613
-1.89115e-06
0.000107861
-5.38093e-07
-1.91432e-06
1.07667e-06
-0.000116575
7.85537e-06
0.000116383
-8.67354e-06
-0.000117997
-6.79303e-06
0.000117481
8.38613e-06
1.01924e-06
7.92719e-06
-8.75076e-06
-6.8298e-06
8.39692e-06
5.98534e-06
-0.000110361
0.00011034
-0.000113509
0.000112701
5.92789e-06
-1.13429e-06
-0.000116995
-6.60144e-06
0.000116526
8.20468e-06
-0.000116158
7.57536e-06
-9.98847e-08
0.000115897
-8.34826e-06
-1.09945e-06
-6.62377e-06
8.20778e-06
7.63342e-06
-8.27873e-08
-8.42308e-06
-5.93694e-06
-0.000111989
0.000111325
-0.000110235
1.80921e-06
0.000110064
-5.90655e-06
1.83121e-06
5.95389e-07
-0.000115094
-1.19201e-06
0.000114974
6.16434e-07
-0.00011479
-4.27451e-07
1.38261e-07
0.000114673
1.00174e-06
5.94693e-07
-1.13969e-06
5.38066e-07
-4.05365e-07
1.33271e-07
9.55479e-07
5.34112e-07
-0.000108019
0.000108102
-0.000108293
1.38632e-07
0.000108261
5.3383e-07
1.3489e-07
-1.73533e-10
-0.000115058
-3.71445e-07
0.000114887
6.81305e-07
-0.000115058
-3.71476e-07
-1.38673e-07
0.000114887
6.81395e-07
-1.40164e-10
-3.69025e-07
6.60052e-07
-3.68989e-07
-1.33562e-07
6.60058e-07
-1.22068e-10
-0.000110116
0.000109883
-0.000110116
-1.3894e-07
0.000109883
-1.32061e-10
-1.35189e-07
-5.95821e-07
-0.000114789
-4.27609e-07
0.000114672
1.00196e-06
-0.000115093
-1.19196e-06
1.00294e-07
0.000114973
6.15749e-07
-5.94898e-07
-4.05258e-07
9.55437e-07
-1.13906e-06
8.30885e-08
5.37172e-07
-5.34662e-07
-0.000108293
0.000108261
-0.000108018
-1.80949e-06
0.000108101
-5.34047e-07
-1.83063e-06
1.13735e-06
-0.000116158
7.57344e-06
0.000115898
-8.35086e-06
-0.000116995
-6.59769e-06
0.000116525
8.2049e-06
1.10059e-06
7.63299e-06
-8.42581e-06
-6.623e-06
8.20952e-06
5.93587e-06
-0.000110235
0.000110063
-0.000111986
0.000111324
5.90778e-06
-1.15983e-06
-0.000116069
-6.43989e-06
0.000115615
8.05349e-06
-0.000115615
7.32242e-06
-1.2565e-07
0.000115303
-8.04467e-06
-1.13856e-06
-6.45204e-06
8.04734e-06
7.37227e-06
-1.13889e-07
-8.1147e-06
-5.85585e-06
-0.000110714
0.00011013
-0.000109842
1.73368e-06
0.000109575
-5.841e-06
1.75324e-06
5.78386e-07
-0.000114816
-1.26117e-06
0.000114619
7.54874e-07
-0.000114529
-4.71892e-07
1.42163e-07
0.000114355
1.0828e-06
5.81797e-07
-1.21645e-06
6.78884e-07
-4.44634e-07
1.39339e-07
1.03091e-06
5.20781e-07
-0.000108115
0.000108067
-0.000108201
1.4077e-07
0.000108109
5.2307e-07
1.38896e-07
-2.10957e-10
-0.000114702
-3.79069e-07
0.000114497
7.26648e-07
-0.000114702
-3.79201e-07
-1.42784e-07
0.000114496
7.26884e-07
-1.8696e-10
-3.70005e-07
6.94618e-07
-3.70131e-07
-1.39817e-07
6.94818e-07
-1.56779e-10
-0.000109652
0.000109414
-0.000109652
-1.41157e-07
0.000109414
-8.59281e-11
-1.3912e-07
-5.79756e-07
-0.000114528
-4.72288e-07
0.000114354
1.08352e-06
-0.000114815
-1.26102e-06
1.23386e-07
0.000114618
7.54267e-07
-5.82584e-07
-4.45054e-07
1.0315e-06
-1.2167e-06
1.13757e-07
6.78335e-07
-5.21346e-07
-0.0001082
0.000108108
-0.000108115
-1.73418e-06
0.000108066
-5.23524e-07
-1.75365e-06
1.16599e-06
-0.000115615
7.32131e-06
0.0001153
-8.04914e-06
-0.00011607
-6.4359e-06
0.000115616
8.05548e-06
1.14373e-06
7.37166e-06
-8.11776e-06
-6.44772e-06
8.0469e-06
5.85299e-06
-0.000109842
0.000109576
-0.000110716
0.000110133
5.83947e-06
-1.17466e-06
-0.000115164
-6.30566e-06
0.000114707
7.93788e-06
-0.000114967
7.0913e-06
-1.36949e-07
0.000114601
-7.76318e-06
-1.15732e-06
-6.30576e-06
7.91387e-06
7.13441e-06
-1.28562e-07
-7.82719e-06
-5.75893e-06
-0.000109577
0.00010903
-0.000109274
1.66648e-06
0.00010894
-5.75304e-06
1.68241e-06
5.57839e-07
-0.000114388
-1.31906e-06
0.00011412
8.92125e-07
-0.000114152
-5.22453e-07
1.42887e-07
0.000113917
1.17268e-06
5.63478e-07
-1.27848e-06
8.16927e-07
-4.91611e-07
1.41696e-07
1.1159e-06
5.04061e-07
-0.000107963
0.000107807
-0.000107986
1.39719e-07
0.000107828
5.07686e-07
1.39216e-07
-9.94248e-11
-0.000114273
-3.99946e-07
0.000114024
7.91802e-07
-0.000114273
-3.99958e-07
-1.43144e-07
0.000114024
7.91809e-07
-9.04062e-11
-3.84151e-07
7.49605e-07
-3.84228e-07
-1.41906e-07
7.49709e-07
-1.83287e-10
-0.000109169
0.000108909
-0.000109169
-1.4016e-07
0.000108909
-1.67615e-10
-1.39627e-07
-5.58262e-07
-0.000114152
-5.22578e-07
0.000113917
1.17278e-06
-0.000114388
-1.31954e-06
1.37125e-07
0.000114121
8.91366e-07
-5.63714e-07
-4.91856e-07
1.11616e-06
-1.27837e-06
1.29765e-07
8.15314e-07
-5.04719e-07
-0.000107985
0.000107827
-0.000107963
-1.66707e-06
0.000107806
-5.08381e-07
-1.68329e-06
1.17259e-06
-0.000114965
7.08376e-06
0.000114603
-7.75647e-06
-0.000115164
-6.30118e-06
0.000114705
7.93302e-06
1.16043e-06
7.1318e-06
-7.82804e-06
-6.30231e-06
7.91476e-06
5.75364e-06
-0.000109274
0.000108937
-0.000109581
0.000109033
5.75005e-06
-1.16917e-06
-0.000114241
-6.19312e-06
0.000113758
7.84473e-06
-0.000114219
6.86568e-06
-1.47346e-07
0.00011381
-7.47768e-06
-1.16051e-06
-6.18241e-06
7.80908e-06
6.90621e-06
-1.40692e-07
-7.54459e-06
-5.64885e-06
-0.000108498
0.000107953
-0.000108577
1.60838e-06
0.000108185
-5.64967e-06
1.61958e-06
5.3524e-07
-0.000113823
-1.37076e-06
0.000113488
1.02261e-06
-0.000113653
-5.78238e-07
1.4107e-07
0.000113354
1.27103e-06
5.4116e-07
-1.33221e-06
9.4774e-07
-5.44363e-07
1.40826e-07
1.20855e-06
4.86846e-07
-0.000107604
0.000107354
-0.000107637
1.37015e-07
0.000107408
4.90427e-07
1.37166e-07
1.39717e-11
-0.000113753
-4.33656e-07
0.000113452
8.75813e-07
-0.000113753
-4.33664e-07
-1.41064e-07
0.000113452
8.75796e-07
-2.20873e-11
-4.11186e-07
8.23388e-07
-4.11195e-07
-1.40896e-07
8.23366e-07
-3.2311e-11
-0.000108635
0.000108339
-0.000108635
-1.37042e-07
0.000108338
-8.38182e-11
-1.3732e-07
-5.35339e-07
-0.000113653
-5.78274e-07
0.000113354
1.27112e-06
-0.000113823
-1.37073e-06
1.48612e-07
0.000113488
1.02191e-06
-5.41326e-07
-5.44518e-07
1.20871e-06
-1.33323e-06
1.41849e-07
9.47709e-07
-4.86753e-07
-0.000107636
0.000107407
-0.000107602
-1.608e-06
0.000107352
-4.90596e-07
-1.61993e-06
1.16832e-06
-0.000114222
6.86317e-06
0.000113811
-7.47202e-06
-0.000114238
-6.18892e-06
0.000113757
7.83891e-06
1.15891e-06
6.89901e-06
-7.53525e-06
-6.17506e-06
7.80062e-06
5.64518e-06
-0.000108576
0.000108186
-0.000108499
0.000107955
5.64075e-06
-1.16148e-06
-0.000113262
-6.08159e-06
0.000112746
7.7594e-06
-0.000113381
6.63863e-06
-1.54728e-07
0.000112919
-7.18331e-06
-1.1537e-06
-6.07116e-06
7.72055e-06
6.68182e-06
-1.49482e-07
-7.2574e-06
-5.52972e-06
-0.000107415
0.000106864
-0.000107769
1.55383e-06
0.000107324
-5.53329e-06
1.56452e-06
5.12176e-07
-0.000113125
-1.41835e-06
0.000112724
1.15234e-06
-0.000113026
-6.37267e-07
1.37285e-07
0.000112662
1.3768e-06
5.18373e-07
-1.38139e-06
1.0767e-06
-6.01351e-07
1.37954e-07
1.30963e-06
4.68546e-07
-0.000107065
0.000106732
-0.000107146
1.32724e-07
0.000106845
4.72749e-07
1.33535e-07
-8.3756e-11
-0.000113125
-4.7809e-07
0.000112765
9.75444e-07
-0.000113125
-4.77947e-07
-1.37485e-07
0.000112765
9.75289e-07
-4.52914e-11
-4.50124e-07
9.14564e-07
-4.50088e-07
-1.38112e-07
9.14514e-07
-1.96322e-10
-0.000108022
0.000107677
-0.000108022
-1.33075e-07
0.000107677
-1.84508e-10
-1.33947e-07
-5.12394e-07
-0.000113027
-6.36757e-07
0.000112662
1.37614e-06
-0.000113125
-1.41597e-06
1.54545e-07
0.000112725
1.14946e-06
-5.18735e-07
-6.01117e-07
1.30936e-06
-1.37947e-06
1.49372e-07
1.07429e-06
-4.68811e-07
-0.000107145
0.000106844
-0.000107064
-1.55293e-06
0.000106733
-4.73318e-07
-1.56477e-06
1.16159e-06
-0.000113378
6.64316e-06
0.000112912
-7.18456e-06
-0.000113264
-6.08882e-06
0.000112748
7.76611e-06
1.15413e-06
6.68709e-06
-7.25889e-06
-6.07643e-06
7.72325e-06
5.53439e-06
-0.000107773
0.000107329
-0.000107414
0.000106859
5.53474e-06
-1.14875e-06
-0.000112213
-6.00278e-06
0.000111655
7.70954e-06
-0.000112434
6.42494e-06
-1.57368e-07
0.000111911
-6.89391e-06
-1.14438e-06
-5.97479e-06
7.65236e-06
6.46376e-06
-1.54712e-07
-6.96841e-06
-5.41782e-06
-0.000106308
0.000105723
-0.000106855
1.50531e-06
0.000106357
-5.41884e-06
1.51365e-06
4.9107e-07
-0.000112296
-1.46375e-06
0.000111829
1.2819e-06
-0.000112267
-6.99381e-07
1.32815e-07
0.000111834
1.49086e-06
4.96324e-07
-1.42678e-06
1.20398e-06
-6.61254e-07
1.33756e-07
1.41817e-06
4.51661e-07
-0.000106363
0.000105953
-0.00010651
1.28246e-07
0.000106134
4.55464e-07
1.29255e-07
-1.02265e-10
-0.000112377
-5.31816e-07
0.000111952
1.08969e-06
-0.000112377
-5.31571e-07
-1.32909e-07
0.000111952
1.08945e-06
-8.56139e-11
-4.98835e-07
1.02046e-06
-4.98621e-07
-1.33834e-07
1.02024e-06
-1.0413e-10
-0.000107308
0.000106904
-0.000107308
-1.28322e-07
0.000106904
-1.13977e-10
-1.29375e-07
-4.90486e-07
-0.000112267
-6.98889e-07
0.000111834
1.49024e-06
-0.000112296
-1.46304e-06
1.58886e-07
0.000111828
1.28132e-06
-4.95904e-07
-6.60687e-07
1.41747e-06
-1.42522e-06
1.55813e-07
1.20256e-06
-4.51407e-07
-0.000106509
0.000106134
-0.000106364
-1.50408e-06
0.000105954
-4.55247e-07
-1.51218e-06
1.14539e-06
-0.000112431
6.4205e-06
0.000111915
-6.89172e-06
-0.000112214
-6.00045e-06
0.000111651
7.70856e-06
1.14119e-06
6.46227e-06
-6.96577e-06
-5.97637e-06
7.65215e-06
5.4163e-06
-0.000106861
0.000106361
-0.000106301
0.000105717
5.41841e-06
-1.1283e-06
-0.000111076
-5.91948e-06
0.000110459
7.66419e-06
-0.000111368
6.19934e-06
-1.62409e-07
0.000110793
-6.58968e-06
-1.1268e-06
-5.89698e-06
7.60323e-06
6.24647e-06
-1.58475e-07
-6.67179e-06
-5.29422e-06
-0.000105126
0.000104501
-0.000105836
1.45958e-06
0.000105282
-5.30059e-06
1.46681e-06
4.69481e-07
-0.000111333
-1.51049e-06
0.000110796
1.41602e-06
-0.00011137
-7.64295e-07
1.27557e-07
0.000110864
1.61233e-06
4.75175e-07
-1.47224e-06
1.33505e-06
-7.24222e-07
1.28863e-07
1.53507e-06
4.34776e-07
-0.000105509
0.000105023
-0.000105723
1.23193e-07
0.000105271
4.38483e-07
1.24415e-07
-6.5543e-11
-0.000111497
-5.92964e-07
0.000111002
1.21613e-06
-0.000111497
-5.92765e-07
-1.27743e-07
0.000111002
1.21597e-06
-1.2087e-10
-5.55975e-07
1.13998e-06
-5.55746e-07
-1.29077e-07
1.13976e-06
-7.31225e-11
-0.000106473
0.000106003
-0.000106473
-1.23328e-07
0.000106003
-1.15753e-10
-1.24597e-07
-4.69893e-07
-0.000111369
-7.63752e-07
0.000110863
1.61196e-06
-0.000111332
-1.50943e-06
1.61316e-07
0.000110795
1.4154e-06
-4.75179e-07
-7.23725e-07
1.53444e-06
-1.47153e-06
1.58549e-07
1.3339e-06
-4.34868e-07
-0.000105724
0.000105272
-0.00010551
-1.45914e-06
0.000105025
-4.38597e-07
-1.46638e-06
1.13046e-06
-0.000111375
6.20254e-06
0.000110795
-6.5913e-06
-0.000111068
-5.92731e-06
0.000110456
7.67009e-06
1.12726e-06
6.24667e-06
-6.67513e-06
-5.89885e-06
7.60865e-06
5.30102e-06
-0.000105836
0.000105279
-0.000105123
0.000104496
5.30455e-06
-1.11238e-06
-0.000109819
-5.86299e-06
0.000109145
7.64918e-06
-0.000110193
5.98394e-06
-1.62419e-07
0.000109548
-6.28858e-06
-1.10873e-06
-5.82783e-06
7.57676e-06
6.0294e-06
-1.61015e-07
-6.37755e-06
-5.18331e-06
-0.000103861
0.000103181
-0.000104699
1.41845e-06
0.000104081
-5.18738e-06
1.42476e-06
4.50673e-07
-0.000110229
-1.55938e-06
0.000109618
1.55661e-06
-0.000110325
-8.32502e-07
1.22435e-07
0.000109743
1.74328e-06
4.55282e-07
-1.51972e-06
1.47046e-06
-7.9022e-07
1.23815e-07
1.6601e-06
4.19648e-07
-0.000104505
0.000103945
-0.000104784
1.18454e-07
0.000104253
4.23153e-07
1.1975e-07
-7.0666e-11
-0.000110474
-6.60992e-07
0.000109903
1.35497e-06
-0.000110474
-6.61016e-07
-1.22686e-07
0.000109903
1.35506e-06
-3.60172e-11
-6.20121e-07
1.27163e-06
-6.2004e-07
-1.23925e-07
1.27161e-06
1.4618e-11
-0.000105503
0.00010496
-0.000105503
-1.18357e-07
0.00010496
2.46624e-11
-1.19627e-07
-4.51472e-07
-0.000110324
-8.32678e-07
0.000109742
1.7437e-06
-0.000110227
-1.55953e-06
1.60384e-07
0.000109618
1.55693e-06
-4.55797e-07
-7.90036e-07
1.66035e-06
-1.51961e-06
1.59969e-07
1.47108e-06
-4.19291e-07
-0.000104785
0.000104253
-0.000104506
-1.41713e-06
0.000103944
-4.22778e-07
-1.42359e-06
1.11225e-06
-0.00011019
5.98682e-06
0.000109542
-6.29077e-06
-0.000109819
-5.86447e-06
0.000109147
7.64906e-06
1.10967e-06
6.03141e-06
-6.37604e-06
-5.83137e-06
7.57763e-06
5.18746e-06
-0.000104694
0.000104076
-0.000103858
0.000103181
5.19294e-06
-1.0966e-06
-0.000108443
-5.79927e-06
0.000107702
7.63708e-06
-0.000108876
5.75805e-06
-1.60928e-07
0.000108157
-5.9748e-06
-1.09391e-06
-5.76606e-06
7.56192e-06
5.80869e-06
-1.59864e-07
-6.07057e-06
-5.06509e-06
-0.000102487
0.000101753
-0.000103433
1.37925e-06
0.000102746
-5.07258e-06
1.38476e-06
4.33097e-07
-0.000108978
-1.61324e-06
0.000108291
1.70578e-06
-0.000109127
-9.04498e-07
1.17197e-07
0.000108464
1.88326e-06
4.37321e-07
-1.57106e-06
1.61433e-06
-8.59549e-07
1.1858e-07
1.79416e-06
4.04591e-07
-0.000103351
0.000102712
-0.000103686
1.1345e-07
0.000103073
4.07817e-07
1.14707e-07
-4.8803e-11
-0.000109298
-7.34891e-07
0.000108645
1.50449e-06
-0.000109297
-7.34876e-07
-1.17252e-07
0.000108645
1.50445e-06
-8.30148e-11
-6.90368e-07
1.41428e-06
-6.90395e-07
-1.18783e-07
1.41431e-06
-9.8299e-12
-0.000104385
0.000103763
-0.000104385
-1.13423e-07
0.000103763
-2.58781e-11
-1.14736e-07
-4.32754e-07
-0.000109126
-9.04398e-07
0.000108464
1.88286e-06
-0.000108978
-1.6114e-06
1.63128e-07
0.00010829
1.70268e-06
-4.37558e-07
-8.59554e-07
1.79405e-06
-1.56929e-06
1.59922e-07
1.61238e-06
-4.04406e-07
-0.000103686
0.000103073
-0.000103351
-1.37785e-06
0.000102713
-4.0764e-07
-1.38329e-06
1.08909e-06
-0.000108869
5.76356e-06
0.000108156
-5.97707e-06
-0.000108445
-5.80678e-06
0.0001077
7.64026e-06
1.09034e-06
5.81573e-06
-6.07345e-06
-5.77014e-06
7.56293e-06
5.06655e-06
-0.000103433
0.000102752
-0.000102486
0.000101746
5.07535e-06
-1.07174e-06
-0.000106929
-5.7585e-06
0.000106113
7.64664e-06
-0.000107411
5.53919e-06
-1.61033e-07
0.00010662
-5.65901e-06
-1.07406e-06
-5.72064e-06
7.5674e-06
5.59611e-06
-1.5912e-07
-5.76529e-06
-4.95017e-06
-0.000100992
0.000100184
-0.000102035
1.34206e-06
0.000101282
-4.95959e-06
1.34744e-06
4.16437e-07
-0.000107572
-1.66856e-06
0.000106804
1.85957e-06
-0.000107766
-9.80181e-07
1.12207e-07
0.000107019
2.03197e-06
4.2054e-07
-1.6245e-06
1.76409e-06
-9.32844e-07
1.13587e-07
1.93758e-06
3.9082e-07
-0.000102041
0.000101324
-0.000102424
1.08773e-07
0.000101726
3.9388e-07
1.10071e-07
-7.76466e-11
-0.000107957
-8.14423e-07
0.000107219
1.6647e-06
-0.000107957
-8.14436e-07
-1.12417e-07
0.000107219
1.66475e-06
-5.79719e-11
-7.66617e-07
1.56818e-06
-7.66605e-07
-1.13714e-07
1.56819e-06
-3.49804e-11
-0.000103107
0.000102401
-0.000103107
-1.08824e-07
0.000102401
9.90178e-13
-1.10014e-07
-4.16924e-07
-0.000107766
-9.80219e-07
0.000107018
2.03223e-06
-0.000107571
-1.66816e-06
1.59882e-07
0.000106803
1.85942e-06
-4.20516e-07
-9.32832e-07
1.9375e-06
-1.62409e-06
1.59588e-07
1.76312e-06
-3.90748e-07
-0.000102424
0.000101725
-0.000102041
-1.3412e-06
0.000101323
-3.93652e-07
-1.346e-06
1.07392e-06
-0.000107419
5.53926e-06
0.000106628
-5.66195e-06
-0.000106925
-5.75671e-06
0.000106106
7.64895e-06
1.07056e-06
5.58848e-06
-5.76243e-06
-5.71551e-06
7.56166e-06
4.95214e-06
-0.000102034
0.00010128
-0.000100991
0.000100187
4.96062e-06
-1.05316e-06
-0.000105261
-5.71959e-06
0.000104365
7.66942e-06
-0.000105798
5.31602e-06
-1.58832e-07
0.000104921
-5.33277e-06
-1.05068e-06
-5.67464e-06
7.57692e-06
5.3693e-06
-1.58629e-07
-5.43929e-06
-4.83853e-06
-9.93529e-05
9.84718e-05
-0.000100497
1.30735e-06
9.9667e-05
-4.84364e-06
1.31119e-06
4.01222e-07
-0.000106002
-1.73024e-06
0.000105148
2.0241e-06
-0.000106235
-1.05996e-06
1.07318e-07
0.000105399
2.19007e-06
4.04491e-07
-1.68268e-06
1.92155e-06
-1.00964e-06
1.08627e-07
2.08899e-06
3.77642e-07
-0.000100572
9.97715e-05
-0.000100991
1.04172e-07
0.000100204
3.80249e-07
1.05377e-07
-1.06298e-10
-0.000106444
-8.98954e-07
0.000105616
1.8345e-06
-0.000106444
-8.98938e-07
-1.07607e-07
0.000105616
1.83454e-06
-8.3155e-11
-8.47721e-07
1.73125e-06
-8.47731e-07
-1.08852e-07
1.7313e-06
-1.02599e-10
-0.000101659
0.000100864
-0.000101659
-1.04352e-07
0.000100864
-7.80327e-11
-1.055e-07
-4.01964e-07
-0.000106235
-1.05999e-06
0.000105399
2.1904e-06
-0.000106001
-1.73035e-06
1.57421e-07
0.000105148
2.02429e-06
-4.05152e-07
-1.00966e-06
2.08932e-06
-1.68206e-06
1.57476e-07
1.92127e-06
-3.77776e-07
-0.000100991
0.000100204
-0.000100572
-1.30709e-06
9.97708e-05
-3.80324e-07
-1.31076e-06
1.05455e-06
-0.000105801
5.31876e-06
0.000104922
-5.33692e-06
-0.000105259
-5.72383e-06
0.000104364
7.67314e-06
1.05277e-06
5.37727e-06
-5.44589e-06
-5.68203e-06
7.58259e-06
4.84333e-06
-0.000100498
9.96659e-05
-9.93535e-05
9.8473e-05
4.84899e-06
-1.03455e-06
-0.000103432
-5.68585e-06
0.000102449
7.70313e-06
-0.000104016
5.08529e-06
-1.54371e-07
0.000103055
-5.00471e-06
-1.03362e-06
-5.63993e-06
7.60639e-06
5.14511e-06
-1.552e-07
-5.11882e-06
-4.72945e-06
-9.75689e-05
9.66125e-05
-9.87975e-05
1.2732e-06
9.78802e-05
-4.73699e-06
1.27758e-06
3.87599e-07
-0.00010426
-1.79623e-06
0.000103318
2.19629e-06
-0.000104526
-1.1433e-06
1.02958e-07
0.000103597
2.35629e-06
3.90282e-07
-1.74618e-06
2.08838e-06
-1.0905e-06
1.04031e-07
2.24976e-06
3.65288e-07
-9.89351e-05