/*--------------------------------*- C++ -*----------------------------------*\
  =========                 |
  \\      /  F ield         | OpenFOAM: The Open Source CFD Toolbox
   \\    /   O peration     | Website:  https://openfoam.org
    \\  /    A nd           | Version:  9
     \\/     M anipulation  |
\*---------------------------------------------------------------------------*/
FoamFile
{
    format      ascii;
    class       volVectorField;
    location    "1";
    object      U;
}
// * * * * * * * * * * * * * * * * * * * * * * * * * * * * * * * * * * * * * //

dimensions      [0 1 -1 0 0 0 0];

internalField   nonuniform List<vector> 
36360
(
(-0.00496146 -0.282006 -0.990565)
(-0.000483837 -0.168351 0.000354078)
(-0.0049919 -0.280958 -1.00274)
(-0.00272994 -0.157393 5.01763e-05)
(-0.00507468 -0.280595 -0.995137)
(0.027668 -0.18278 2.10348e-05)
(-0.00126895 -0.274254 -1.00362)
(0.029432 -0.202427 7.00903e-05)
(-0.00384394 -0.205394 -0.000270853)
(-0.00555012 -0.217822 -1.2983e-05)
(-0.00634871 -0.20433 -8.24499e-05)
(-0.00542433 -0.215367 7.74004e-07)
(0.01113 -0.222902 -8.40182e-06)
(0.00841222 -0.226214 -8.2602e-06)
(0.013111 -0.226824 -0.00010499)
(0.0115324 -0.228896 -4.05418e-06)
(-0.00482132 -0.220286 3.99104e-06)
(-0.00482129 -0.220286 -4.00712e-06)
(-0.00510335 -0.217986 2.11764e-07)
(-0.00510334 -0.217985 -2.16634e-07)
(0.00853223 -0.226092 -1.68164e-06)
(0.00853224 -0.226092 1.66545e-06)
(0.0114426 -0.228972 6.99513e-07)
(0.0114426 -0.228972 -7.04611e-07)
(-0.00554997 -0.21782 1.29671e-05)
(-0.00384405 -0.205391 0.00027083)
(-0.00542426 -0.215365 -7.78195e-07)
(-0.00634867 -0.204327 8.24391e-05)
(0.00841232 -0.226212 8.24421e-06)
(0.01113 -0.222899 8.39327e-06)
(0.0115324 -0.228894 4.04938e-06)
(0.013111 -0.22682 0.000104981)
(-0.000483831 -0.168349 -0.000354041)
(-0.00496204 -0.28201 0.990565)
(-0.0027307 -0.157391 -5.01646e-05)
(-0.00499105 -0.280962 1.00274)
(0.0276684 -0.182777 -2.10037e-05)
(-0.0050746 -0.280598 0.995136)
(0.0294318 -0.202424 -7.00782e-05)
(-0.00126824 -0.274258 1.00362)
(0.0104564 -0.263161 -0.972282)
(-0.0118923 -0.1994 0.000937168)
(0.00526014 -0.273827 -0.981805)
(-0.00634286 -0.187776 0.000759983)
(0.00685456 -0.280698 -0.992611)
(0.00161924 -0.164497 -0.000278032)
(0.00380072 -0.285607 -0.992533)
(0.0133578 -0.161168 -0.000129296)
(0.00411757 -0.209527 -0.000438012)
(-0.000259512 -0.219888 -4.44827e-05)
(0.00214192 -0.206911 -0.000433987)
(-0.00380361 -0.22023 -3.19757e-05)
(0.014585 -0.20476 0.000333554)
(0.00593835 -0.221121 -1.53934e-05)
(0.0132264 -0.214877 0.000146134)
(0.0063149 -0.222944 -1.53389e-05)
(-0.00303013 -0.225077 -1.40689e-06)
(-0.00303013 -0.225076 1.36969e-06)
(-0.00390928 -0.223598 2.74741e-06)
(-0.00390921 -0.223597 -2.77345e-06)
(0.00532116 -0.220663 -1.42374e-05)
(0.0053213 -0.220662 1.41998e-05)
(0.00672868 -0.222125 -7.42877e-06)
(0.00672868 -0.222124 7.40159e-06)
(-0.000259554 -0.219886 4.44439e-05)
(0.0041177 -0.209525 0.000437981)
(-0.0038036 -0.220228 3.19459e-05)
(0.00214167 -0.206908 0.000433954)
(0.00593853 -0.221119 1.53543e-05)
(0.0145855 -0.204757 -0.000333585)
(0.00631475 -0.222942 1.53109e-05)
(0.013226 -0.214874 -0.000146153)
(-0.0118926 -0.199399 -0.000937105)
(0.010456 -0.263164 0.972281)
(-0.00634312 -0.187774 -0.000759925)
(0.00525883 -0.273831 0.981805)
(0.0016198 -0.164493 0.000278129)
(0.0068546 -0.280703 0.992612)
(0.0133581 -0.161165 0.000129348)
(0.00379933 -0.285612 0.992534)
(0.016677 -0.250849 -0.959933)
(-0.018076 -0.211379 0.000733894)
(0.0144825 -0.256356 -0.964914)
(-0.0157172 -0.206597 0.00088344)
(0.0121181 -0.2632 -0.993406)
(-0.0122667 -0.175611 -0.000806899)
(0.0099922 -0.270873 -0.994592)
(-0.00722272 -0.169416 -0.000506783)
(0.00216932 -0.212745 -0.000198671)
(0.00248149 -0.219831 -3.24693e-05)
(0.00349491 -0.211487 -0.000336938)
(0.00199821 -0.219882 -4.69772e-05)
(0.0078432 -0.192906 0.000890866)
(0.00508781 -0.213361 4.37739e-05)
(0.0114667 -0.197109 0.000605143)
(0.00607836 -0.217628 3.87478e-06)
(0.000140844 -0.225002 -1.25796e-05)
(0.000140872 -0.225002 1.25204e-05)
(-0.00129481 -0.225443 -7.02906e-06)
(-0.00129479 -0.225443 6.98428e-06)
(0.00218084 -0.219037 -1.6254e-05)
(0.00218087 -0.219036 1.61928e-05)
(0.00341851 -0.219928 -1.68177e-05)
(0.0034186 -0.219927 1.67698e-05)
(0.00248159 -0.219829 3.24032e-05)
(0.00216919 -0.212743 0.00019864)
(0.00199838 -0.21988 4.69314e-05)
(0.00349496 -0.211484 0.000336903)
(0.00508795 -0.213358 -4.38434e-05)
(0.0078434 -0.192902 -0.000890939)
(0.00607853 -0.217625 -3.92711e-06)
(0.0114672 -0.197105 -0.000605193)
(-0.0180772 -0.211378 -0.000733797)
(0.0166773 -0.250853 0.959931)
(-0.0157179 -0.206595 -0.000883367)
(0.0144822 -0.25636 0.964913)
(-0.0122673 -0.175607 0.000807115)
(0.0121191 -0.263206 0.993405)
(-0.007223 -0.169412 0.000506933)
(0.00999243 -0.270879 0.994592)
(0.0183942 -0.242055 -0.953464)
(-0.0202068 -0.217066 0.000358546)
(0.0178084 -0.246075 -0.956084)
(-0.0194697 -0.214688 0.000550204)
(0.0136619 -0.248677 -0.99195)
(-0.0163077 -0.188698 -0.00141303)
(0.0131785 -0.2557 -0.992539)
(-0.0149646 -0.182374 -0.00111841)
(0.000266885 -0.214402 5.18457e-05)
(0.00187424 -0.219169 6.01211e-05)
(0.00102709 -0.213632 -6.22239e-05)
(0.00228477 -0.219593 5.28759e-06)
(0.00415684 -0.191674 0.00134811)
(0.00246349 -0.208007 0.000164599)
(0.00549758 -0.191443 0.00114323)
(0.00358973 -0.210124 9.94238e-05)
(0.000917719 -0.223422 -8.86502e-06)
(0.000917781 -0.223421 8.77217e-06)
(0.000756343 -0.224257 -1.46158e-05)
(0.00075638 -0.224257 1.45411e-05)
(0.00116836 -0.216474 -7.70548e-06)
(0.00116835 -0.216473 7.61227e-06)
(0.00163632 -0.217708 -1.36105e-05)
(0.00163623 -0.217707 1.35339e-05)
(0.0018743 -0.219166 -6.02199e-05)
(0.000266596 -0.214399 -5.1874e-05)
(0.00228479 -0.219591 -5.36776e-06)
(0.00102675 -0.21363 6.21934e-05)
(0.00246361 -0.208004 -0.000164712)
(0.00415701 -0.19167 -0.00134824)
(0.0035898 -0.210122 -9.95128e-05)
(0.00549746 -0.191439 -0.00114333)
(-0.0202086 -0.217064 -0.00035839)
(0.0183955 -0.242058 0.953459)
(-0.0194714 -0.214687 -0.000550077)
(0.0178087 -0.246079 0.956081)
(-0.0163093 -0.188695 0.0014134)
(0.0136642 -0.248684 0.991949)
(-0.0149663 -0.182371 0.0011187)
(0.0131793 -0.255707 0.992538)
(0.018852 -0.235916 -0.949747)
(-0.0206353 -0.220067 -1.9452e-07)
(0.0186945 -0.23871 -0.951203)
(-0.0205422 -0.218802 0.000172145)
(0.0138756 -0.237229 -0.991129)
(-0.0170771 -0.198525 -0.0019142)
(0.0138324 -0.242509 -0.991459)
(-0.0168848 -0.194114 -0.00167953)
(-0.000410762 -0.215958 0.000202358)
(0.00128503 -0.218629 0.000182645)
(-0.000196373 -0.215179 0.000139157)
(0.00152271 -0.218838 0.000122019)
(0.00318657 -0.194573 0.00162082)
(0.0012685 -0.206046 0.00029954)
(0.00346992 -0.192883 0.00150527)
(0.00173288 -0.206754 0.000233148)
(0.000933373 -0.221945 1.63919e-05)
(0.000933448 -0.221944 -1.6518e-05)
(0.000933577 -0.222634 2.34881e-06)
(0.000933656 -0.222634 -2.45893e-06)
(0.000709805 -0.21468 1.36307e-05)
(0.000709848 -0.214679 -1.37554e-05)
(0.000863857 -0.215502 1.64193e-06)
(0.000863914 -0.215502 -1.74708e-06)
(0.00128509 -0.218627 -0.00018278)
(-0.000411168 -0.215956 -0.000202376)
(0.00152277 -0.218836 -0.000122138)
(-0.000196743 -0.215177 -0.00013918)
(0.00126858 -0.206043 -0.000299702)
(0.00318687 -0.194569 -0.001621)
(0.00173297 -0.206751 -0.00023329)
(0.00347002 -0.19288 -0.00150543)
(-0.0206376 -0.220066 4.19243e-07)
(0.0188543 -0.235919 0.94974)
(-0.0205444 -0.2188 -0.000171953)
(0.0186957 -0.238714 0.951197)
(-0.0170794 -0.198523 0.00191475)
(0.0138791 -0.237235 0.991128)
(-0.0168872 -0.194112 0.00168)
(0.0138344 -0.242516 0.991457)
(0.0189522 -0.231546 -0.947511)
(-0.020467 -0.221535 -0.000291675)
(0.0189239 -0.233556 -0.948317)
(-0.020586 -0.220952 -0.000155198)
(0.0137416 -0.22891 -0.990628)
(-0.0168771 -0.204583 -0.00228781)
(0.0138209 -0.232736 -0.990819)
(-0.0170056 -0.201976 -0.00211612)
(-0.000415585 -0.217336 0.000273263)
(0.00107464 -0.218494 0.000286453)
(-0.000466786 -0.216692 0.000245147)
(0.00114432 -0.218525 0.000238127)
(0.00320502 -0.198211 0.00175574)
(0.000763439 -0.205507 0.000413038)
(0.00312272 -0.196417 0.00170167)
(0.000964546 -0.205672 0.00036008)
(0.000955402 -0.220909 4.69759e-05)
(0.000955394 -0.220908 -4.71131e-05)
(0.0009422 -0.221374 3.16006e-05)
(0.000942247 -0.221373 -3.17372e-05)
(0.000587526 -0.213236 4.11714e-05)
(0.000587503 -0.213235 -4.12933e-05)
(0.000631663 -0.213931 2.71588e-05)
(0.000631698 -0.213931 -2.72904e-05)
(0.00107461 -0.218492 -0.000286636)
(-0.000416194 -0.217335 -0.000273288)
(0.00114433 -0.218523 -0.000238282)
(-0.00046736 -0.21669 -0.000245164)
(0.0007633 -0.205505 -0.000413248)
(0.00320525 -0.198208 -0.00175599)
(0.000964553 -0.205669 -0.000360269)
(0.00312293 -0.196413 -0.00170189)
(-0.02047 -0.221534 0.000291995)
(0.0189551 -0.231549 0.947502)
(-0.0205889 -0.220951 0.000155468)
(0.0189259 -0.233559 0.948308)
(-0.0168803 -0.204581 0.00228854)
(0.0137458 -0.228916 0.990626)
(-0.0170088 -0.201974 0.00211677)
(0.0138236 -0.232742 0.990817)
(0.0189306 -0.228309 -0.946115)
(-0.0201664 -0.222045 -0.000513871)
(0.0189487 -0.229819 -0.946564)
(-0.0203197 -0.221887 -0.000410923)
(0.0135083 -0.22285 -0.990308)
(-0.0165045 -0.207869 -0.00255224)
(0.0136162 -0.225649 -0.990421)
(-0.0166891 -0.206504 -0.00243185)
(-0.00019049 -0.218301 0.000296151)
(0.00106018 -0.218517 0.000362166)
(-0.000310396 -0.217871 0.00028913)
(0.00105388 -0.2185 0.000327875)
(0.00349495 -0.201259 0.00180674)
(0.000537902 -0.205502 0.000494802)
(0.00333884 -0.199841 0.00178892)
(0.000627777 -0.20547 0.000457833)
(0.000963229 -0.220189 7.49879e-05)
(0.00096318 -0.220188 -7.50652e-05)
(0.000962696 -0.220522 6.16138e-05)
(0.000962651 -0.220522 -6.17315e-05)
(0.000528175 -0.211975 6.7723e-05)
(0.000528112 -0.211974 -6.7678e-05)
(0.000556233 -0.212584 5.48591e-05)
(0.000556183 -0.212583 -5.49371e-05)
(0.00106011 -0.218516 -0.000362347)
(-0.000191006 -0.218299 -0.000296271)
(0.0010538 -0.218498 -0.000328068)
(-0.000311077 -0.217869 -0.000289189)
(0.00053765 -0.2055 -0.000494833)
(0.00349511 -0.201257 -0.00180711)
(0.000627575 -0.205467 -0.000458032)
(0.00333899 -0.199838 -0.00178921)
(-0.0201697 -0.222043 0.000514276)
(0.0189344 -0.228311 0.946104)
(-0.020323 -0.221885 0.000411302)
(0.0189512 -0.229822 0.946554)
(-0.0165076 -0.207867 0.00255298)
(0.0135128 -0.222855 0.990306)
(-0.0166928 -0.206502 0.00243264)
(0.0136193 -0.225655 0.990419)
(0.0188544 -0.225787 -0.945169)
(-0.0198713 -0.2219 -0.000675997)
(0.0188935 -0.226976 -0.945417)
(-0.0200171 -0.222043 -0.000601396)
(0.0132387 -0.218345 -0.990088)
(-0.0160997 -0.209348 -0.00273339)
(0.0133644 -0.220439 -0.990155)
(-0.0162935 -0.208788 -0.002652)
(5.57832e-05 -0.218801 0.00029317)
(0.00112071 -0.2185 0.000409706)
(-7.02669e-05 -0.218611 0.000296869)
(0.00108425 -0.218522 0.000388939)
(0.00381416 -0.203416 0.00181234)
(0.000453986 -0.205648 0.000545694)
(0.00366181 -0.202451 0.00181261)
(0.000484347 -0.20557 0.000525014)
(0.000951004 -0.219612 9.66837e-05)
(0.000950439 -0.219611 -9.7112e-05)
(0.00095735 -0.219891 8.67507e-05)
(0.000957668 -0.21989 -8.68121e-05)
(0.000469662 -0.21087 8.91051e-05)
(0.000469236 -0.21087 -9.01369e-05)
(0.000499598 -0.211404 7.94666e-05)
(0.000499892 -0.211404 -7.92734e-05)
(0.00112159 -0.218499 -0.000410174)
(5.55942e-05 -0.2188 -0.000293224)
(0.00108379 -0.218521 -0.000389047)
(-7.10845e-05 -0.21861 -0.00029709)
(0.00045499 -0.205646 -0.000548792)
(0.00381482 -0.203414 -0.00181079)
(0.000483727 -0.205567 -0.000523552)
(0.0036616 -0.202448 -0.00181392)
(-0.0198749 -0.221896 0.000676397)
(0.0188613 -0.225789 0.944568)
(-0.0200208 -0.22204 0.000601719)
(0.0188976 -0.226979 0.945406)
(-0.016101 -0.209347 0.00273527)
(0.0132439 -0.218348 0.990086)
(-0.0162972 -0.208786 0.00265217)
(0.0133685 -0.220443 0.990153)
(0.0187755 -0.223687 -0.944408)
(-0.019608 -0.221331 -0.000792133)
(0.0188155 -0.224704 -0.944564)
(-0.0197383 -0.221657 -0.000738758)
(0.0129667 -0.214889 -0.989919)
(-0.0157273 -0.209686 -0.0028562)
(0.0130957 -0.216514 -0.98996)
(-0.0159074 -0.209634 -0.00280124)
(0.000318266 -0.218873 0.000275984)
(0.00122511 -0.218344 0.000437145)
(0.000185482 -0.218886 0.000285627)
(0.00116885 -0.218443 0.0004256)
(0.00407945 -0.20473 0.00179296)
(0.000447906 -0.205766 0.000576653)
(0.00395301 -0.204173 0.00180376)
(0.000441961 -0.205719 0.000564768)
(0.000951239 -0.219059 0.000112159)
(0.000951095 -0.219058 -0.000112458)
(0.000947599 -0.219338 0.000105249)
(0.000947756 -0.219337 -0.00010545)
(0.000417941 -0.209898 0.000105316)
(0.000417966 -0.209898 -0.000105639)
(0.000439376 -0.210371 9.82343e-05)
(0.000439776 -0.21037 -9.8365e-05)
(0.00122473 -0.218342 -0.000437404)
(0.000316056 -0.218871 -0.000275872)
(0.0011684 -0.218442 -0.000425751)
(0.000183989 -0.218885 -0.000285646)
(0.000447638 -0.205764 -0.00057702)
(0.00407796 -0.204729 -0.00179271)
(0.000441729 -0.205718 -0.000564105)
(0.00395217 -0.204171 -0.0018044)
(-0.0196156 -0.221327 0.000792513)
(0.0187865 -0.223689 0.944398)
(-0.0197432 -0.221652 0.000738958)
(0.0188238 -0.224708 0.943951)
(-0.0157257 -0.209687 0.00285674)
(0.0129677 -0.21488 0.989917)
(-0.0159084 -0.209633 0.00280155)
(0.0130995 -0.216512 0.989958)
(0.0187231 -0.221836 -0.941632)
(-0.0193805 -0.220462 -0.00087435)
(0.0187451 -0.222751 -0.943856)
(-0.0194905 -0.220933 -0.000836692)
(0.0127634 -0.212134 -0.989774)
(-0.0154225 -0.209296 -0.00293843)
(0.012852 -0.21346 -0.989808)
(-0.015564 -0.209565 -0.00290115)
(0.000543788 -0.218582 0.00025342)
(0.0013478 -0.218004 0.000449895)
(0.000442102 -0.21877 0.000265015)
(0.00128521 -0.218199 0.000444998)
(0.00429036 -0.205337 0.00176423)
(0.00049147 -0.205742 0.000588063)
(0.00419121 -0.205111 0.00177928)
(0.000465153 -0.205774 0.000583337)
(0.000981816 -0.218456 0.000121827)
(0.00098202 -0.218456 -0.000122414)
(0.000962253 -0.218768 0.000117621)
(0.000962212 -0.218767 -0.000118062)
(0.000395148 -0.209004 0.000115508)
(0.000395032 -0.209003 -0.000116066)
(0.000403977 -0.209446 0.000111009)
(0.000403881 -0.209445 -0.00011146)
(0.00134846 -0.218002 -0.000450487)
(0.000542503 -0.218579 -0.000253397)
(0.00128507 -0.218197 -0.000445372)
(0.00043996 -0.218767 -0.000264944)
(0.000491262 -0.20574 -0.000588912)
(0.0042902 -0.205336 -0.00176493)
(0.000464792 -0.205773 -0.00058379)
(0.00419031 -0.205111 -0.00177905)
(-0.0193899 -0.220464 0.000875911)
(0.018732 -0.221834 0.943712)
(-0.0194987 -0.220929 0.00083771)
(0.0187551 -0.222755 0.943846)
(-0.0154085 -0.209294 0.00294275)
(0.0127414 -0.212124 0.9873)
(-0.0155545 -0.209567 0.00290244)
(0.0128396 -0.213454 0.989806)
(0.0187029 -0.220091 -0.939324)
(-0.0191772 -0.219381 -0.000931224)
(0.0187098 -0.220977 -0.941052)
(-0.0192784 -0.219947 -0.000904968)
(0.0126144 -0.209783 -0.989643)
(-0.0151603 -0.208454 -0.00299257)
(0.0126739 -0.21095 -0.98967)
(-0.0152782 -0.208929 -0.00296784)
(0.000729563 -0.217979 0.000228904)
(0.00148549 -0.217454 0.000452631)
(0.000635751 -0.218319 0.000240891)
(0.00141443 -0.217756 0.000452142)
(0.00446538 -0.205391 0.00173159)
(0.000570504 -0.205508 0.000593131)
(0.0043834 -0.205428 0.00174823)
(0.000530162 -0.205652 0.000592279)
(0.00104771 -0.21775 0.000127118)
(0.00104819 -0.217749 -0.00012787)
(0.00101035 -0.218119 0.00012493)
(0.00101082 -0.218118 -0.000125576)
(0.000392865 -0.20812 0.00012138)
(0.000392934 -0.208119 -0.000121876)
(0.000391699 -0.208564 0.00011897)
(0.000391707 -0.208563 -0.000119406)
(0.00148686 -0.217453 -0.000454094)
(0.000727717 -0.217977 -0.000228967)
(0.00141589 -0.217754 -0.000453019)
(0.00063502 -0.218316 -0.000241485)
(0.000571136 -0.205506 -0.000593926)
(0.00446676 -0.20539 -0.00173249)
(0.000530481 -0.20565 -0.000593055)
(0.00438416 -0.205427 -0.00174906)
(-0.0191825 -0.219377 0.000934928)
(0.0187038 -0.220094 0.943044)
(-0.019284 -0.219954 0.000907671)
(0.0187101 -0.220975 0.943169)
(-0.0151543 -0.208456 0.00299605)
(0.0125994 -0.209788 0.986884)
(-0.0152734 -0.208928 0.00297183)
(0.0126567 -0.210953 0.987147)
(0.0187431 -0.218372 -0.938583)
(-0.0189945 -0.218098 -0.00097557)
(0.0187112 -0.219255 -0.938695)
(-0.0190838 -0.218775 -0.000955795)
(0.0125318 -0.207663 -0.989511)
(-0.0149478 -0.207311 -0.00303153)
(0.0125597 -0.20874 -0.989539)
(-0.015045 -0.207923 -0.00301393)
(0.000916634 -0.217098 0.000207971)
(0.0016427 -0.21668 0.000450665)
(0.000823232 -0.217574 0.000217547)
(0.00156158 -0.217096 0.00045273)
(0.0046119 -0.204998 0.00170187)
(0.000661707 -0.205037 0.000589927)
(0.00454038 -0.205252 0.00171597)
(0.000614517 -0.205305 0.000592122)
(0.00115106 -0.216895 0.000129632)
(0.00115102 -0.216895 -0.000129979)
(0.00109466 -0.217343 0.000128833)
(0.00109485 -0.217342 -0.000129164)
(0.000411951 -0.207183 0.000124033)
(0.000412027 -0.207183 -0.000124572)
(0.000399663 -0.207662 0.000123027)
(0.000399744 -0.207661 -0.000123599)
(0.00164264 -0.21668 -0.000451256)
(0.000914693 -0.217099 -0.000206491)
(0.00156188 -0.217095 -0.000453108)
(0.000819246 -0.217573 -0.000217387)
(0.000662366 -0.205035 -0.000590656)
(0.00461534 -0.204997 -0.00170277)
(0.000615234 -0.205302 -0.000592991)
(0.00454294 -0.20525 -0.00171717)
(-0.0189916 -0.218099 0.000975648)
(0.0187358 -0.218368 0.939089)
(-0.0190956 -0.218767 0.0009567)
(0.0187207 -0.21926 0.942487)
(-0.0149261 -0.207307 0.00303438)
(0.0125064 -0.207661 0.986168)
(-0.015027 -0.207927 0.00301713)
(0.0125365 -0.208757 0.986727)
(0.0188279 -0.216596 -0.939393)
(-0.0188094 -0.216638 -0.00100405)
(0.0187864 -0.217524 -0.937935)
(-0.0189098 -0.217391 -0.000991066)
(0.0124576 -0.205608 -0.986189)
(-0.0147222 -0.20593 -0.00305829)
(0.0124735 -0.206684 -0.989406)
(-0.0148166 -0.20666 -0.00304474)
(0.00110551 -0.215961 0.000185149)
(0.00181899 -0.215673 0.000444596)
(0.00100869 -0.216562 0.000196014)
(0.00172821 -0.216207 0.000447967)
(0.00473889 -0.204226 0.00167477)
(0.000761915 -0.204308 0.0005832)
(0.00467967 -0.204659 0.00168736)
(0.000711277 -0.204706 0.00058678)
(0.00129084 -0.215859 0.00012986)
(0.00129093 -0.215859 -0.000129946)
(0.00121664 -0.216402 0.000129971)
(0.00121665 -0.216401 -0.000130126)
(0.000452742 -0.206136 0.000124653)
(0.000452697 -0.206135 -0.000124793)
(0.000429947 -0.206677 0.000124578)
(0.000429996 -0.206676 -0.000124794)
(0.00181964 -0.215673 -0.000444484)
(0.00110698 -0.215961 -0.000185876)
(0.00172876 -0.216207 -0.000448114)
(0.00101098 -0.216563 -0.000195554)
(0.000761566 -0.204306 -0.000583274)
(0.00473654 -0.204223 -0.0016745)
(0.00071148 -0.204704 -0.000587027)
(0.00468058 -0.204656 -0.00168778)
(-0.0187878 -0.216642 0.00100326)
(0.0187971 -0.216586 0.93784)
(-0.0188821 -0.217399 0.00099012)
(0.0187471 -0.217521 0.938452)
(-0.0147343 -0.205932 0.00305628)
(0.0124575 -0.205615 0.985965)
(-0.0148198 -0.206653 0.00304509)
(0.0124655 -0.206682 0.985998)
(0.0188952 -0.214706 -0.940926)
(-0.01857 -0.214996 -0.00102537)
(0.0188506 -0.215693 -0.938746)
(-0.0186887 -0.215848 -0.00101567)
(0.012426 -0.203548 -0.986068)
(-0.0145343 -0.204348 -0.00307045)
(0.0124265 -0.204631 -0.98602)
(-0.0146183 -0.205172 -0.0030651)
(0.00130898 -0.214573 0.000167767)
(0.00201612 -0.214421 0.000436447)
(0.0012066 -0.2153 0.00017609)
(0.00191515 -0.215078 0.000440691)
(0.00484982 -0.203123 0.00164908)
(0.000866901 -0.203307 0.000573718)
(0.00479664 -0.203717 0.00166144)
(0.000814003 -0.203843 0.000578533)
(0.00146402 -0.214612 0.000128494)
(0.00146372 -0.214612 -0.000128824)
(0.00137351 -0.215263 0.000129291)
(0.0013735 -0.215263 -0.000129578)
(0.000511522 -0.204927 0.000123364)
(0.000511212 -0.204926 -0.000123986)
(0.000480215 -0.205555 0.000124054)
(0.000480065 -0.205554 -0.000124689)
(0.0020147 -0.214421 -0.000436675)
(0.00130198 -0.214573 -0.000168079)
(0.00191478 -0.215078 -0.00044096)
(0.00120213 -0.2153 -0.000177383)
(0.000866223 -0.203306 -0.000574223)
(0.00484812 -0.203123 -0.00164855)
(0.000813503 -0.20384 -0.00057927)
(0.00479357 -0.203714 -0.00166202)
(-0.0185976 -0.214984 0.00102519)
(0.0189343 -0.214706 0.940914)
(-0.0187054 -0.215848 0.00101556)
(0.0188668 -0.2157 0.937164)
(-0.0145234 -0.204355 0.00306785)
(0.0124279 -0.203542 0.989262)
(-0.0146228 -0.20518 0.00306652)
(0.0124291 -0.20464 0.985789)
(0.0190436 -0.212672 -0.93689)
(-0.0183472 -0.21314 -0.0010423)
(0.0189671 -0.213738 -0.940299)
(-0.0184668 -0.214108 -0.00103421)
(0.0124353 -0.201408 -0.985772)
(-0.0143433 -0.20256 -0.00308191)
(0.0124116 -0.202558 -0.985894)
(-0.014426 -0.203494 -0.00307718)
(0.00151707 -0.212936 0.000153872)
(0.00223142 -0.212915 0.000428262)
(0.00141084 -0.213787 0.000160439)
(0.00212138 -0.2137 0.000432394)
(0.00495785 -0.201717 0.00162685)
(0.000977009 -0.202028 0.000564074)
(0.00490625 -0.202459 0.0016379)
(0.000921689 -0.202703 0.000569079)
(0.00166747 -0.213131 0.000126551)
(0.00166693 -0.213131 -0.000126727)
(0.00156216 -0.213902 0.000127602)
(0.00156169 -0.213902 -0.000127773)
(0.00058577 -0.203516 0.00012167)
(0.000585183 -0.203515 -0.000121952)
(0.000546947 -0.204249 0.000122657)
(0.000546434 -0.204248 -0.000123005)
(0.00223001 -0.212914 -0.000428013)
(0.00151415 -0.212934 -0.000151403)
(0.00211996 -0.213701 -0.000432147)
(0.00140686 -0.213787 -0.000159124)
(0.000975983 -0.202028 -0.000564021)
(0.00495751 -0.201719 -0.00162567)
(0.000920477 -0.202703 -0.000569088)
(0.00490389 -0.20246 -0.00163657)
(-0.0183652 -0.21314 0.00104023)
(0.0190716 -0.212665 0.94017)
(-0.0184802 -0.214094 0.0010327)
(0.0189886 -0.213746 0.940291)
(-0.0143074 -0.202572 0.00307443)
(0.0124057 -0.201406 0.98914)
(-0.0144051 -0.203498 0.00307097)
(0.0123974 -0.202536 0.989155)
(0.0192111 -0.210465 -0.939401)
(-0.0180937 -0.211064 -0.00104984)
(0.0191067 -0.211626 -0.93619)
(-0.0182142 -0.212134 -0.0010466)
(0.0124231 -0.199136 -0.985722)
(-0.0141204 -0.200575 -0.00308166)
(0.0124154 -0.200345 -0.985598)
(-0.0142268 -0.201602 -0.00308127)
(0.00174262 -0.21104 0.000139475)
(0.00246689 -0.211141 0.000418574)
(0.00162871 -0.212023 0.000146562)
(0.00234675 -0.212063 0.000423258)
(0.0050646 -0.200023 0.0016062)
(0.00109136 -0.200462 0.000553748)
(0.00501065 -0.200908 0.00161576)
(0.00103363 -0.201282 0.000558669)
(0.00189965 -0.211394 0.000123985)
(0.00189917 -0.211394 -0.000124272)
(0.00178011 -0.212296 0.000125232)
(0.00177951 -0.212296 -0.000125559)
(0.000673485 -0.201868 0.000119296)
(0.000673075 -0.201868 -0.000119539)
(0.000628196 -0.202723 0.000120441)
(0.000627715 -0.202723 -0.000120814)
(0.00246528 -0.21114 -0.00041901)
(0.00173799 -0.211038 -0.000141229)
(0.00234483 -0.212061 -0.000423512)
(0.00162298 -0.212021 -0.000145925)
(0.00109083 -0.200464 -0.000553932)
(0.00506624 -0.200026 -0.0016059)
(0.00103326 -0.201282 -0.000558961)
(0.00501395 -0.20091 -0.00161549)
(-0.0181234 -0.211073 0.00105116)
(0.0192567 -0.210442 0.937209)
(-0.0182521 -0.212149 0.00104608)
(0.0191602 -0.21162 0.939532)
(-0.0140957 -0.200569 0.00308039)
(0.0124188 -0.199124 0.989012)
(-0.0141877 -0.20161 0.00307739)
(0.012392 -0.200342 0.989031)
(0.0194512 -0.208021 -0.937508)
(-0.0178447 -0.208777 -0.00105907)
(0.0193313 -0.209292 -0.93876)
(-0.0179797 -0.209958 -0.00105417)
(0.0124484 -0.19668 -0.986514)
(-0.0138888 -0.198353 -0.00308358)
(0.0124075 -0.197991 -0.985549)
(-0.0139847 -0.199507 -0.00308384)
(0.00198294 -0.208874 0.000130017)
(0.00272333 -0.209085 0.00041035)
(0.00185915 -0.209994 0.000134135)
(0.00259204 -0.21015 0.000414405)
(0.00517652 -0.198046 0.00158859)
(0.00121101 -0.198604 0.000544087)
(0.00512117 -0.199072 0.00159742)
(0.0011506 -0.199571 0.000549115)
(0.00216004 -0.209379 0.0001214)
(0.00216028 -0.209379 -0.000121731)
(0.00202632 -0.210422 0.000122757)
(0.00202624 -0.210422 -0.000122924)
(0.000773457 -0.199957 0.000116855)
(0.000773363 -0.199958 -0.000116746)
(0.000722057 -0.200947 0.000118219)
(0.000721791 -0.200948 -0.000118114)
(0.00272422 -0.209084 -0.000411157)
(0.00198393 -0.208873 -0.000131469)
(0.00259205 -0.210148 -0.000414759)
(0.0018594 -0.209992 -0.000136149)
(0.00121148 -0.198605 -0.000543755)
(0.00517842 -0.198047 -0.00158727)
(0.00115028 -0.199572 -0.000548786)
(0.0051225 -0.199074 -0.00159622)
(-0.0178396 -0.20876 0.0010614)
(0.0194418 -0.208017 0.930788)
(-0.0179816 -0.20996 0.00105616)
(0.0193343 -0.209298 0.93262)
(-0.0138982 -0.198345 0.00308295)
(0.0124501 -0.196679 0.988887)
(-0.0139798 -0.199494 0.00308213)
(0.0124073 -0.197975 0.988902)
(0.0196681 -0.205348 -0.937806)
(-0.0175325 -0.206199 -0.00106554)
(0.0195457 -0.206736 -0.936806)
(-0.0176872 -0.207525 -0.00106258)
(0.0124679 -0.194029 -0.986804)
(-0.013646 -0.195887 -0.00307902)
(0.012433 -0.195419 -0.986354)
(-0.0137502 -0.197159 -0.00308165)
(0.00225151 -0.206427 0.000122929)
(0.0030054 -0.206733 0.000402345)
(0.00211537 -0.207687 0.00012678)
(0.0028615 -0.207947 0.000406256)
(0.00529676 -0.19578 0.00157215)
(0.00133759 -0.196442 0.000533961)
(0.00523908 -0.196951 0.00158026)
(0.00127384 -0.197562 0.00053891)
(0.0024491 -0.207068 0.000118712)
(0.00244913 -0.207068 -0.000118857)
(0.00230112 -0.208262 0.000120015)
(0.00230131 -0.208262 -0.000120314)
(0.000885315 -0.197759 0.000113886)
(0.000885165 -0.19776 -0.00011398)
(0.000828119 -0.198896 0.000115313)
(0.000828029 -0.198896 -0.000115396)
(0.00300485 -0.206733 -0.000402169)
(0.0022456 -0.206425 -0.00012104)
(0.00286156 -0.207947 -0.000406681)
(0.00211144 -0.207688 -0.000126056)
(0.00133756 -0.196442 -0.000533907)
(0.00529473 -0.19578 -0.00157086)
(0.00127401 -0.197562 -0.000538764)
(0.00523642 -0.196951 -0.00157885)
(-0.0175561 -0.206185 0.00106285)
(0.0196956 -0.205344 0.933841)
(-0.017703 -0.207513 0.00106198)
(0.0195579 -0.206753 0.933923)
(-0.013654 -0.195891 0.00307722)
(0.0124737 -0.194018 0.988761)
(-0.0137682 -0.197159 0.00308)
(0.012441 -0.195428 0.988775)
(0.0199564 -0.202396 -0.936984)
(-0.0172235 -0.203345 -0.00106718)
(0.0198041 -0.203938 -0.937126)
(-0.0173838 -0.204812 -0.0010666)
(0.0125273 -0.191124 -0.987094)
(-0.0134108 -0.193169 -0.00307323)
(0.0124922 -0.192647 -0.986653)
(-0.0135332 -0.194567 -0.00307706)
(0.00253724 -0.203679 0.000113414)
(0.00331091 -0.204069 0.000394772)
(0.00239077 -0.205093 0.000118249)
(0.00315498 -0.205441 0.000398539)
(0.00541707 -0.193218 0.0015569)
(0.00147083 -0.193964 0.000524728)
(0.00535583 -0.194537 0.00156452)
(0.00140333 -0.195243 0.00052937)
(0.00276609 -0.204442 0.00011603)
(0.00276618 -0.204442 -0.000116362)
(0.00260415 -0.205795 0.000117368)
(0.00260418 -0.205795 -0.000117591)
(0.00100876 -0.195253 0.000111112)
(0.00100879 -0.195253 -0.000111266)
(0.000945705 -0.196546 0.000112538)
(0.000945628 -0.196546 -0.000112597)
(0.00331114 -0.204068 -0.000395314)
(0.0025361 -0.20368 -0.000114703)
(0.00315477 -0.205441 -0.000398695)
(0.00238777 -0.205091 -0.000117737)
(0.00147118 -0.193964 -0.000524783)
(0.0054176 -0.193218 -0.00155616)
(0.00140352 -0.195243 -0.000529296)
(0.00535718 -0.194538 -0.00156319)
(-0.0172267 -0.203377 0.0010683)
(0.0199586 -0.202396 0.936545)
(-0.017394 -0.204817 0.00106613)
(0.019817 -0.203924 0.933097)
(-0.0134018 -0.193167 0.00307234)
(0.0125192 -0.191127 0.988639)
(-0.0134859 -0.19457 0.00307489)
(0.012444 -0.192635 0.988651)
(0.0202586 -0.199152 -0.936139)
(-0.0168719 -0.200205 -0.00106873)
(0.0200927 -0.200845 -0.936275)
(-0.0170494 -0.201828 -0.00106748)
(0.012585 -0.187952 -0.987603)
(-0.0131448 -0.190178 -0.00306648)
(0.0125254 -0.189588 -0.986947)
(-0.0132567 -0.191713 -0.00306912)
(0.00285414 -0.200616 0.000109175)
(0.00364341 -0.201077 0.000387334)
(0.00269253 -0.202189 0.000110572)
(0.00347392 -0.202615 0.0003909)
(0.00555138 -0.190349 0.00154353)
(0.00161286 -0.191159 0.000515861)
(0.00548557 -0.191824 0.00154979)
(0.00154111 -0.192603 0.000520091)
(0.00311129 -0.201483 0.000113385)
(0.00311124 -0.201483 -0.000113843)
(0.00293526 -0.203005 0.00011467)
(0.00293531 -0.203005 -0.000115046)
(0.00114379 -0.192419 0.000108263)
(0.00114384 -0.192419 -0.00010863)
(0.00107504 -0.193878 0.000109634)
(0.00107512 -0.193878 -0.000109932)
(0.00364356 -0.201077 -0.000388255)
(0.00285398 -0.200615 -0.000110608)
(0.00347416 -0.202615 -0.000391559)
(0.00269174 -0.202188 -0.000112506)
(0.00161335 -0.191158 -0.000516168)
(0.00555384 -0.190348 -0.0015434)
(0.00154148 -0.192603 -0.000520346)
(0.00548521 -0.191823 -0.00154951)
(-0.0168732 -0.200204 0.00107147)
(0.0202589 -0.199167 0.931406)
(-0.0170514 -0.201836 0.00106962)
(0.0200968 -0.200816 0.932561)
(-0.0131517 -0.190177 0.00306894)
(0.0125963 -0.187953 0.988507)
(-0.0132859 -0.191712 0.00307078)
(0.0125542 -0.189592 0.988519)
(0.0205931 -0.195604 -0.931972)
(-0.0164877 -0.196743 -0.00107187)
(0.0204213 -0.197441 -0.932765)
(-0.0166873 -0.198515 -0.00107042)
(0.0126353 -0.184493 -0.98838)
(-0.0128449 -0.186868 -0.00305972)
(0.0125727 -0.186265 -0.987465)
(-0.0129669 -0.188566 -0.00306446)
(0.00319743 -0.197225 0.000106035)
(0.00400207 -0.197744 0.000381551)
(0.00302231 -0.198962 0.000107872)
(0.00381958 -0.199454 0.000384206)
(0.0056967 -0.187157 0.00153031)
(0.0017634 -0.188014 0.000507573)
(0.00562644 -0.188795 0.00153711)
(0.00168756 -0.18963 0.000511787)
(0.00348414 -0.198177 0.000111127)
(0.00348391 -0.198176 -0.000111367)
(0.00329438 -0.199874 0.0001122)
(0.00329423 -0.199874 -0.000112603)
(0.00128978 -0.18924 0.00010573)
(0.00128969 -0.18924 -0.000105926)
(0.00121564 -0.190873 0.000107011)
(0.00121562 -0.190873 -0.000107278)
(0.00400177 -0.197743 -0.000381642)
(0.00319783 -0.197226 -0.000105766)
(0.00381944 -0.199454 -0.000384899)
(0.00302224 -0.198964 -0.000108316)
(0.00176328 -0.188013 -0.000507794)
(0.00569705 -0.187156 -0.00153099)
(0.00168774 -0.189629 -0.000511974)
(0.00562795 -0.188794 -0.00153715)
(-0.016488 -0.19675 0.00107141)
(0.0205914 -0.195609 0.935257)
(-0.0166867 -0.198516 0.00107134)
(0.02042 -0.197431 0.933902)
(-0.0128564 -0.186863 0.0030599)
(0.0126571 -0.184497 0.988379)
(-0.012972 -0.188563 0.00306453)
(0.0125848 -0.18627 0.988389)
(0.0209421 -0.191705 -0.932104)
(-0.016061 -0.192938 -0.00106988)
(0.0207621 -0.193723 -0.93385)
(-0.0162799 -0.194887 -0.00107059)
(0.0127284 -0.180719 -0.988249)
(-0.0125663 -0.183244 -0.00304834)
(0.012669 -0.182652 -0.988258)
(-0.0127003 -0.185096 -0.00305371)
(0.00356941 -0.193489 0.000101735)
(0.00438615 -0.194054 0.000375187)
(0.00337971 -0.195402 0.000103929)
(0.00419105 -0.195944 0.000378379)
(0.00584258 -0.183631 0.00151786)