/*--------------------------------*- C++ -*----------------------------------*\
  =========                 |
  \\      /  F ield         | OpenFOAM: The Open Source CFD Toolbox
   \\    /   O peration     | Website:  https://openfoam.org
    \\  /    A nd           | Version:  9
     \\/     M anipulation  |
\*---------------------------------------------------------------------------*/
FoamFile
{
    format      ascii;
    class       volScalarField;
    location    "3.85";
    object      epsilon;
}
// * * * * * * * * * * * * * * * * * * * * * * * * * * * * * * * * * * * * * //

dimensions      [0 2 -3 0 0 0 0];

internalField   nonuniform List<scalar> 
36360
(
0.413325
0.331388
0.210883
0.183233
0.20808
0.16061
0.0385082
0.0462435
0.130475
0.0473593
0.0511004
0.0125346
0.0554604
0.0157468
0.0123033
0.0058181
0.0193537
0.0193502
0.00577475
0.00577485
0.00719156
0.00719283
0.00472463
0.00472478
0.0473374
0.130417
0.0125312
0.0510764
0.015748
0.0554445
0.00581876
0.0123019
0.331295
0.413237
0.183177
0.210826
0.160544
0.207983
0.0462247
0.038488
0.683098
0.551955
0.563267
0.450928
0.555612
0.4202
0.390328
0.289883
0.283902
0.157433
0.208687
0.0991599
0.227819
0.127982
0.134775
0.0562502
0.107534
0.107514
0.0571973
0.0571856
0.089282
0.0892736
0.0289725
0.0289736
0.157363
0.283772
0.0991151
0.208594
0.127939
0.227706
0.0562406
0.134719
0.551776
0.682929
0.450793
0.563139
0.419975
0.555302
0.289747
0.390133
0.883403
0.728807
0.787772
0.643498
0.85972
0.678684
0.710269
0.549571
0.427817
0.279571
0.356924
0.218277
0.43214
0.302318
0.327841
0.211853
0.21888
0.218842
0.162387
0.162358
0.249953
0.249916
0.165766
0.165744
0.279452
0.427611
0.218182
0.356756
0.302192
0.431885
0.211771
0.327661
0.728537
0.883149
0.643273
0.787559
0.678248
0.859141
0.549245
0.709828
1.05541
0.885585
0.972244
0.809299
1.14736
0.933643
1.0053
0.806942
0.562696
0.399729
0.496496
0.340315
0.645622
0.491953
0.538564
0.396277
0.331566
0.331511
0.275606
0.275559
0.428374
0.428307
0.338094
0.338043
0.399562
0.562419
0.340171
0.496253
0.491736
0.64521
0.396106
0.538231
0.885233
1.05508
0.808987
0.971953
0.932981
1.14649
0.806392
1.00458
1.20655
1.02581
1.13348
0.957807
1.41669
1.17707
1.28465
1.05724
0.686696
0.512724
0.626245
0.457401
0.85539
0.681913
0.75157
0.587526
0.438942
0.438873
0.386236
0.386174
0.608846
0.608749
0.518986
0.518904
0.512517
0.686359
0.457213
0.625936
0.681604
0.854825
0.587263
0.751081
1.0254
1.20617
0.957419
1.13313
1.17619
1.41554
1.05647
1.28364
1.33809
1.14916
1.27478
1.08966
1.66121
1.40109
1.54222
1.29175
0.797738
0.615369
0.743987
0.565537
1.05203
0.862313
0.955692
0.773687
0.537298
0.537218
0.489467
0.489392
0.781439
0.781313
0.696519
0.696407
0.615129
0.797352
0.565313
0.743623
0.861918
1.05132
0.773335
0.955053
1.14869
1.33768
1.08921
1.27438
1.40001
1.65981
1.29076
1.54094
1.45055
1.2554
1.39671
1.20446
1.87689
1.60067
1.77265
1.50398
0.894648
0.705863
0.848068
0.662277
1.22955
1.02668
1.14332
0.946681
0.624515
0.624425
0.582456
0.582371
0.939497
0.939345
0.862479
0.86234
0.705597
0.894222
0.662023
0.847661
1.02621
1.22871
0.946246
1.14255
1.25489
1.45011
1.20397
1.39629
1.59941
1.87527
1.50281
1.77113
1.54483
1.34499
1.49997
1.30231
2.06225
1.7735
1.97321
1.69033
0.977205
0.783547
0.9378
0.74641
1.38479
1.17143
1.30993
1.10152
0.699703
0.699605
0.663726
0.663632
1.07921
1.07903
1.01167
1.01151
0.783259
0.976749
0.746132
0.937358
1.17089
1.38385
1.10101
1.30904
1.34445
1.54438
1.30178
1.49952
1.77208
2.06044
1.68898
1.97148
1.62213
1.41881
1.5856
1.38389
2.21755
1.91914
2.14339
1.84949
1.04582
0.848517
1.01332
0.817699
1.51665
1.29502
1.4535
1.23575
0.762795
0.762692
0.732846
0.732746
1.19884
1.19864
1.14143
1.14125
0.848211
1.04534
0.817402
1.01285
1.29442
1.51561
1.23518
1.4525
1.41825
1.62168
1.38333
1.58514
1.91759
2.21556
1.848
2.14148
1.68403
1.47818
1.65502
1.45032
2.34443
2.0387
2.28421
1.98188
1.10145
0.901478
1.07532
0.876569
1.62559
1.39758
1.57376
1.34873
0.814371
0.814262
0.790098
0.789992
1.29834
1.29813
1.25092
1.25072
0.901159
1.10095
0.876256
1.07483
1.39694
1.62447
1.34811
1.57268
1.4776
1.68358
1.44975
1.65456
2.03704
2.34231
1.98026
2.28214
1.73216
1.52457
1.70983
1.50302
2.44523
2.13406
2.39771
2.08904
1.14528
0.943428
1.1249
0.923898
1.71299
1.48017
1.6717
1.44112
0.855333
0.855221
0.836251
0.83614
1.37863
1.37841
1.34064
1.34042
0.943098
1.14477
0.923573
1.12439
1.47949
1.7118
1.44045
1.67054
1.52398
1.73171
1.50243
1.70937
2.13231
2.44298
2.08733
2.39551
1.76824
1.55954
1.75174
1.54353
2.52274
2.20768
2.4865
2.17321
1.17866
0.975571
1.16335
0.960806
1.78082
1.54453
1.74904
1.51434
0.886812
0.886696
0.87234
0.872226
1.44131
1.44107
1.41189
1.41166
0.975232
1.17814
0.960471
1.16283
1.54381
1.77958
1.51364
1.74782
1.55894
1.76779
1.54293
1.75129
2.20585
2.5204
2.17141
2.48419
1.79389
1.58462
1.78242
1.57337
2.5798
2.2621
2.55341
2.23689
1.20294
0.999138
1.19202
0.988517
1.83131
1.59262
1.8079
1.5703
0.909978
0.90986
0.899525
0.899408
1.48825
1.48801
1.46644
1.4662
0.998793
1.20241
0.988174
1.19149
1.59188
1.83002
1.56957
1.80663
1.58402
1.79344
1.57277
1.78196
2.26021
2.57738
2.23502
2.55102
1.81067
1.60127
1.80346
1.59408
2.61925
2.29994
2.60132
2.2827
1.21944
1.01535
1.21226
1.00827
1.86675
1.62659
1.85058
1.61106
0.926007
0.925888
0.918991
0.918872
1.52149
1.52124
1.50628
1.50603
1.015
1.21889
1.00792
1.21172
1.62582
1.86543
1.61031
1.84927
1.60067
1.81023
1.59347
1.80301
2.29801
2.61677
2.28078
2.59885
1.81993
1.61078
1.81633
1.60702
2.64367
2.32361
2.63295
2.31316
1.22934
1.02534
1.22533
1.02125
1.88932
1.64844
1.87932
1.63872
0.935989
0.935868
0.931877
0.931757
1.54298
1.54272
1.5334
1.53315
1.02499
1.22879
1.0209
1.22479
1.64766
1.88798
1.63795
1.87799
1.61017
1.81949
1.60641
1.81589
2.32164
2.64115
2.3112
2.63043
1.82286
1.61431
1.8223
1.61341
2.65543
2.33533
2.65076
2.33059
1.23372
1.03011
1.23236
1.02852
1.90103
1.66007
1.89622
1.65523
0.940907
0.940786
0.939219
0.939098
1.55455
1.55429
1.54971
1.54945
1.02976
1.23318
1.02816
1.23181
1.65928
1.89967
1.65445
1.89487
1.6137
1.82243
1.6128
1.82186
2.33334
2.65289
2.32861
2.64822
1.82067
1.61297
1.82252
1.61435
2.65658
2.33697
2.6569
2.33703
1.23358
1.03058
1.23434
1.03102
1.90355
1.66304
1.90316
1.66239
0.941635
0.941515
0.941937
0.941816
1.55771
1.55745
1.55694
1.55668
1.03023
1.23304
1.03067
1.2338
1.66225
1.90219
1.6616
1.90181
1.61237
1.82025
1.61374
1.82209
2.33498
2.65403
2.33503
2.65434
1.81405
1.6075
1.81807
1.61091
2.64911
2.33057
2.65379
2.33467
1.22968
1.02754
1.23229
1.02969
1.89888
1.65926
1.90207
1.66192
0.938982
0.938862
0.940918
0.940797
1.55432
1.55406
1.55675
1.55649
1.02719
1.22914
1.02934
1.23175
1.65847
1.89752
1.66113
1.90071
1.6069
1.81363
1.61031
1.81765
2.32858
2.64657
2.33268
2.65123
1.80372
1.59855
1.8095
1.60361
2.63411
2.31703
2.64221
2.32434
1.22259
1.02149
1.22671
1.02506
1.88772
1.64935
1.89381
1.65477
0.9334
0.933281
0.936723
0.936603
1.54499
1.54473
1.5501
1.54984
1.02114
1.22206
1.02471
1.22617
1.64857
1.88636
1.65398
1.89245
1.59796
1.80331
1.60302
1.80908
2.31505
2.63158
2.32235
2.63965
1.79029
1.58674
1.79756
1.59318
2.61294
2.29769
2.62401
2.30779
1.2129
1.013
1.21827
1.01774
1.87135
1.63458
1.87994
1.64234
0.925458
0.92534
0.929914
0.929795
1.53094
1.53069
1.53832
1.53806
1.01266
1.21237
1.0174
1.21773
1.6338
1.87001
1.64156
1.87859
1.58616
1.78989
1.59259
1.79716
2.29573
2.61044
2.30582
2.62147
1.77415
1.57245
1.78274
1.58008
2.58647
2.27338
2.60009
2.28588
1.20098
1.00244
1.20742
1.00818
1.85055
1.61567
1.86127
1.62542
0.915518
0.915401
0.920934
0.920817
1.51289
1.51264
1.5222
1.52194
1.0021
1.20045
1.00783
1.20689
1.6149
1.84923
1.62465
1.85994
1.57188
1.77376
1.5795
1.78234
2.27145
2.58399
2.28392
2.59758
1.75562
1.55599
1.76537
1.56468
2.55535
2.24474
2.57123
2.25934
1.18712
0.990079
1.1945
0.996687
1.82591
1.59318
1.83849
1.60467
0.903853
0.903738
0.910104
0.909988
1.49138
1.49113
1.50236
1.50211
0.989744
1.18661
0.99635
1.19398
1.59243
1.82461
1.6039
1.83718
1.55543
1.75524
1.56411
1.76499
2.24284
2.55292
2.25741
2.56876
1.73492
1.53758
1.74574
1.54722
2.52008
2.21222
2.53799
2.22871
1.17153
0.976128
1.17975
0.983513
1.79785
1.56752
1.81211
1.58055
0.890659
0.890546
0.897654
0.89754
1.46681
1.46657
1.47928
1.47904
0.9758
1.17103
0.983182
1.17925
1.56678
1.79658
1.57981
1.81082
1.53703
1.73455
1.54666
1.74536
2.21035
2.51769
2.22682
2.53557
1.71219
1.51735
1.72401
1.52789
2.48096
2.17613
2.50077
2.19438
1.15435
0.960714
1.16335
0.968817
1.76667
1.53896
1.78247
1.55342
0.876063
0.875953
0.883746
0.883634
1.43945
1.43921
1.45329
1.45306
0.960393
1.15386
0.968492
1.16286
1.53824
1.76543
1.55269
1.78121
1.51682
1.71183
1.52734
1.72364
2.17431
2.47863
2.19254
2.4984
1.68752
1.4954
1.7003
1.50679
2.43819
2.13666
2.45982
2.15659
1.13565
0.943914
1.14541
0.952702
1.73253
1.50767
1.7498
1.52349
0.860141
0.860034
0.868479
0.86837
1.40944
1.40921
1.4246
1.42437
0.9436
1.13517
0.952384
1.14492
1.50696
1.73132
1.52277
1.74857
1.49488
1.68717
1.50626
1.69994
2.13488
2.43592
2.15479
2.4575
1.66095
1.47177
1.67467
1.48399
2.39187
2.09388
2.41527
2.11547
1.11548
0.925758
1.12597
0.935219
1.69551
1.4737
1.71421
1.49086
0.842922
0.842817
0.851905
0.851798
1.37687
1.37664
1.39331
1.39308
0.925452
1.11501
0.934909
1.12549
1.47302
1.69433
1.49016
1.71302
1.47126
1.66061
1.48348
1.67432
2.09216
2.38966
2.11371
2.41302
1.63249
1.44645
1.64715
1.45952
2.342
2.04782
2.36718
2.07106
1.09382
0.906241
1.10505
0.916382
1.65561
1.43707
1.67576
1.45557
0.8244
0.824297
0.834033
0.83393
1.34173
1.34151
1.35946
1.35924
0.905943
1.09336
0.91608
1.10459
1.43641
1.65446
1.45489
1.6746
1.44596
1.63216
1.45901
1.64681
2.04615
2.33986
2.06936
2.36499
1.60214
1.41943
1.61774
1.43335
2.28853
1.99842
2.31553
2.02335
1.07065
0.885327
1.08264
0.896169
1.61276
1.39772
1.6344
1.41759
0.804537
0.804438
0.814843
0.814742
1.30396
1.30375
1.32303
1.32281
0.885038
1.0702
0.895875
1.08219
1.39708
1.61166
1.41694
1.63328
1.41895
1.60182
1.43286
1.61742
1.9968
2.28646
2.0217
2.31341
1.56987
1.39066
1.58643
1.40545
2.23136
1.94554
2.26024
1.97224
1.0459
0.862956
1.05868
0.874531
1.56687
1.35553
1.59006
1.37685
0.783273
0.783177
0.794284
0.794186
1.26348
1.26327
1.28392
1.28372
0.862676
1.04547
0.874246
1.05825
1.35492
1.5658
1.37622
1.58897
1.39019
1.56956
1.40498
1.58611
1.94398
2.22937
1.97065
2.2582
1.53563
1.36007
1.55318
1.37578
2.17035
1.88905
2.20117
1.91757
1.01951
0.839046
1.03312
0.851396
1.51778
1.31039
1.54259
1.33321
0.760526
0.760433
0.772283
0.772189
1.22014
1.21994
1.24203
1.24184
0.838775
1.01909
0.85112
1.0327
1.3098
1.51675
1.3326
1.54155
1.35962
1.53532
1.37532
1.55287
1.88755
2.16843
1.91604
2.19921
1.49934
1.32755
1.51792
1.34423
2.10534
1.82892
2.13819
1.85928
0.99136
0.813496
1.00585
0.826673
1.46534
1.26212
1.49186
1.28653
0.736193
0.736103
0.748751
0.74866
1.17379
1.17361
1.19722
1.19703
0.813235
0.99096
0.826407
1.00545
1.26155
1.46436
1.28595
1.49086
1.32712
1.49905
1.34378
1.51762
1.82749
2.10351
1.85782
2.13631
1.46095
1.29302
1.48058
1.31071
2.03609
1.76486
2.0711
1.79724
0.961347
0.786187
0.97678
0.800252
1.40934
1.21054
1.43767
1.23663
0.710157
0.710071
0.723575
0.723487
1.12426
1.12408
1.14931
1.14913
0.785936
0.960962
0.799996
0.976388
1.21
1.40841
1.23608
1.43672
1.2926
1.46067
1.31028
1.48029
1.76349
2.03435
1.79584
2.06931
1.42036
1.25637
1.44109
1.27512
1.96233
1.69658
1.99965
1.73111
0.929335
0.756983
0.945778
0.772006
1.34954
1.15543
1.37981
1.18332
0.682283
0.6822
0.69663
0.696546
1.07134
1.07117
1.09812
1.09795
0.756742
0.928967
0.77176
0.945401
1.15492
1.34866
1.1828
1.37891
1.25596
1.42008
1.27471
1.44081
1.69529
1.96068
1.72978
1.99794
1.37746
1.21746
1.39935
1.23735
1.88374
1.62386
1.92352
1.66065
0.895181
0.725733
0.912704
0.74179
1.28571
1.09659
1.31803
1.12638
0.652418
0.652339
0.667772
0.667692
1.01484
1.01468
1.04344
1.04328
0.725503
0.894829
0.741554
0.912344
1.09611
1.28488
1.12589
1.31718
1.21707
1.37719
1.23695
1.39908
1.62264
1.88219
1.65939
1.92191
1.33221
1.1762
1.35527
1.19726
1.79999
1.5465
1.8424
1.58564
0.858739
0.692264
0.877415
0.709446
1.21762
1.03377
1.25211
1.06559
0.620377
0.620302
0.636837
0.63676
0.954508
0.954364
0.985067
0.984917
0.692046
0.858404
0.709222
0.877072
1.03333
1.21685
1.06513
1.25131
1.17583
1.33195
1.19689
1.355
1.54537
1.79854
1.58446
1.84089
1.28475
1.1326
1.30886
1.15481
1.71086
1.46445
1.75598
1.50593
0.819841
0.656324
0.839761
0.674773
1.14501
0.966664
1.1818
1.00069
0.585878
0.585808
0.603603
0.603531
0.890027
0.889896
0.922722
0.922584
0.656119
0.819526
0.674561
0.839436
0.966258
1.1443
1.00026
1.18107
1.13225
1.28451
1.15446
1.30861
1.46341
1.70952
1.50484
1.75457
1.23605
1.0868
1.26055
1.11009
1.61695
1.37805
1.66428
1.42164
0.778085
0.617368
0.799516
0.637419
1.0674
0.894681
1.1068
0.931256
0.548386
0.548321
0.56769
0.567623
0.820857
0.82074
0.855988
0.855864
0.617177
0.777791
0.637221
0.799211
0.894318
1.06676
0.930872
1.10613
1.08647
1.23582
1.10975
1.26031
1.3771
1.61573
1.42064
1.66299
1.19072
1.0375
1.2124
1.06302
1.52326
1.28718
1.56921
1.33327
0.73133
0.573868
0.755778
0.596476
0.982741
0.816527
1.02616
0.856415
0.50687
0.506811
0.528337
0.528275
0.746326
0.746225
0.784209
0.7841
0.573693
0.731058
0.596294
0.755494
0.816213
0.982184
0.856076
1.02556
1.0372
1.1905
1.0627
1.21217
1.28634
1.52218
1.33237
1.56805
1.17725
0.961456
1.17596
1.00788
1.44392
1.16586
1.48211
1.23559
0.669527
0.522585
0.70366
0.549521
0.882492
0.730927
0.935411
0.774508
0.460134
0.460081
0.4843
0.484244
0.667234
0.667149
0.707057
0.706964
0.522428
0.669281
0.549355
0.703401
0.730664
0.882025
0.77422
0.934898
0.961175
1.17704
1.00759
1.17575
1.16516
1.44299
1.23481
1.4811
0.622023
0.50071
0.387696
0.315945
0.535617
0.428744
0.314016
0.257237
0.244569
0.11986
0.12283
0.0428931
0.19334
0.0849797
0.0884005
0.0253338
0.0696033
0.0695836
0.0169144
0.0169094
0.0425364
0.0425255
0.0100322
0.0100309
0.119791
0.244439
0.0428606
0.122744
0.0849336
0.193246
0.0253204
0.0883472
0.500543
0.621882
0.315808
0.387566
0.428613
0.535502
0.257141
0.313922
0.92291
0.761212
0.791491
0.644367
0.818522
0.668677
0.694755
0.560819
0.451075
0.285084
0.353455
0.203091
0.374058
0.223287
0.288042
0.153566
0.213967
0.213927
0.140208
0.140177
0.160664
0.160633
0.0990958
0.0990737
0.284962
0.450882
0.202992
0.35329
0.223189
0.373894
0.153493
0.287912
0.760997
0.922747
0.644172
0.791335
0.668481
0.81836
0.560655
0.694615
1.12977
0.952716
1.03347
0.862544
1.01648
0.84865
0.923681
0.763285
0.622986
0.439282
0.540478
0.364086
0.52915
0.358778
0.454073
0.29203
0.358203
0.35815
0.287222
0.287175
0.285777
0.285731
0.223527
0.223488
0.439127
0.622756
0.363945
0.540263
0.358638
0.52893
0.29191
0.45388
0.952485
1.12962
0.862317
1.03331
0.848405
1.01629
0.763062
0.923502
1.29232
1.10822
1.21536
1.03416
1.17702
0.999262
1.10033
0.926953
0.770271
0.577336
0.699488
0.510489
0.666323
0.484321
0.599883
0.423053
0.490614
0.490554
0.426224
0.426166
0.404815
0.404756
0.346469
0.346416
0.577165
0.77003
0.510324
0.69925
0.484151
0.666065
0.422897
0.599641
1.108
1.29221
1.03393
1.21523
0.998989
1.17682
0.926691
1.10014
1.42504
1.23752
1.36197
1.17586
1.31212
1.1281
1.24747
1.06625
0.896249
0.698168
0.83587
0.64
0.78691
0.597256
0.728735
0.542533
0.608041
0.607978
0.551368
0.551306
0.51333
0.513264
0.460613
0.460551
0.697994
0.896016
0.639827
0.835631
0.597065
0.786629
0.542351
0.728463
1.23734
1.425
1.17566
1.36189
1.12782
1.31195
1.06597
1.24728
1.53407
1.34498
1.48229
1.29384
1.42584
1.23769
1.37153
1.18524
1.0028
0.801863
0.951934
0.752215
0.891243
0.696384
0.841158
0.648662
0.709655
0.709594
0.66092
0.660858
0.609382
0.609312
0.563062
0.562993
0.801695
1.00259
0.752043
0.951709
0.696182
0.890952
0.648464
0.840871
1.34485
1.53411
1.29368
1.48229
1.23742
1.42571
1.18496
1.37138
1.6231
1.43347
1.58095
1.39152
1.52057
1.32967
1.47552
1.28585
1.09166
0.889227
1.04945
0.847635
0.979886
0.781462
0.937576
0.740771
0.795769
0.79571
0.754722
0.754661
0.692303
0.69223
0.652595
0.652523
0.88907
1.09147
0.847472
1.04924
0.781254
0.979593
0.740565
0.937283
1.43339
1.62323
1.39141
1.58104
1.32941
1.52048
1.28559
1.4754
1.69494
1.50534
1.6611
1.47144
1.59832
1.4056
1.56154
1.36964
1.1646
0.96152
1.13014
0.92731
1.05379
0.852946
1.01873
0.818983
0.867347
0.867292
0.833441
0.833384
0.762282
0.762207
0.729002
0.728928
0.961376
1.16444
0.927158
1.12997
0.852735
1.0535
0.818773
1.01844
1.50531
1.69515
1.47138
1.66127
1.40536
1.59827
1.36939
1.56147
1.75182
1.56261
1.72521
1.53578
1.66088
1.46702
1.63147
1.43813
1.22333
1.02016
1.19578
0.992607
1.11411
0.911685
1.0857
0.883984
0.925636
0.925585
0.898222
0.898168
0.819994
0.819918
0.792755
0.79268
1.02003
1.2232
0.992469
1.19563
0.911475
1.11383
0.883773
1.08541
1.56264
1.7521
1.53578
1.72546
1.4668
1.66087
1.4379
1.63145
1.7958
1.60723
1.77541
1.58652
1.71007
1.51556
1.68716
1.49293
1.26962
1.06672
1.24809
1.04503
1.16224
0.958847
1.13977
0.936796
0.972083
0.972035
0.950422
0.950372
0.866484
0.866409
0.84473
0.844655
1.0666
1.26952
1.0449
1.24797
0.958638
1.16196
0.936586
1.13949
1.6073
1.79616
1.58656
1.77573
1.51536
1.71011
1.49272
1.68718
1.8287
1.64091
1.81364
1.62546
1.74754
1.55278
1.73029
1.53562
1.30508
1.1027
1.28878
1.08612
1.19956
0.995685
1.18233
0.978648
1.00813
1.00808
0.991501
0.991455
0.902925
0.902849
0.886056
0.885981
1.10259
1.305
1.08601
1.28869
0.995478
1.19929
0.97844
1.18206
1.64102
1.82912
1.62555
1.81403
1.55261
1.74762
1.53544
1.73035
1.85216
1.66525
1.84165
1.6543
1.77491
1.58022
1.76254
1.56778
1.33127
1.12958
1.31943
1.11739
1.22751
1.02351
1.21481
1.01083
1.03519
1.03515
1.0229
1.02286
0.930565
0.93049
0.917957
0.917882
1.12948
1.33121
1.11729
1.31936
1.02331
1.22725
1.01063
1.21454
1.6654
1.85263
1.65443
1.8421
1.58006
1.77502
1.56762
1.76263
1.8676
1.68165
1.86093
1.67451
1.79363
1.59927
1.78541
1.59086
1.34956
1.14869
1.34151
1.14023
1.24739
1.04357
1.23857
1.03464
1.05459
1.05455
1.04598
1.04594
0.950606
0.950532
0.941661
0.941586
1.1486
1.34952
1.14014
1.34147
1.04337
1.24714
1.03443
1.23831
1.68184
1.86812
1.67467
1.86143
1.59913
1.79378
1.59072
1.78555
1.87633
1.69142
1.87288
1.68745
1.80505
1.61125
1.80034
1.60624
1.36121
1.16125
1.35635
1.15593
1.26045
1.05704
1.25491
1.05127
1.06751
1.06747
1.06201
1.06197
0.964192
0.964118
0.958348
0.958274
1.16118
1.36119
1.15585
1.35632
1.05684
1.26021
1.05107
1.25466
1.69163
1.87689
1.68765
1.87342
1.61113
1.80523
1.60611
1.8005
1.87939
1.69558
1.87866
1.6943
1.81029
1.61725
1.80854
1.61511
1.36731
1.16834
1.36511
1.16565
1.26777
1.06497
1.26498
1.06185
1.07501
1.07498
1.07211
1.07207
0.972346
0.972273
0.969107
0.969034
1.16827
1.3673
1.16557
1.36509
1.06477
1.26754
1.06166
1.26474
1.69582
1.87998
1.69453
1.87924
1.61715
1.81049
1.61499
1.80873
1.8778
1.69515
1.87927
1.69605
1.81042
1.6183
1.8111
1.61852
1.36879
1.17088
1.36879
1.17036
1.27031
1.06827
1.26981
1.06737
1.07802
1.07799
1.07726
1.07723
0.975974
0.975902
0.974899
0.974827
1.17082
1.36879
1.17029
1.36879
1.06808
1.27008
1.06718
1.26957
1.69541
1.87842
1.69629
1.87987
1.61821
1.81064
1.61842
1.81131
1.87229
1.6909
1.87565
1.69363
1.80633
1.61532
1.80904
1.61746
1.36652
1.16972
1.3683
1.17094
1.26897
1.06781
1.27029
1.06868
1.07735
1.07732
1.07832
1.07829
0.975899
0.975828
0.976568
0.976496
1.16967
1.36653
1.17088
1.36831
1.06762
1.26874
1.06849
1.27006
1.69117
1.87292
1.69389
1.87628
1.61523
1.80656
1.61737
1.80927
1.86346
1.68343
1.86842
1.68771
1.79864
1.60887
1.80309
1.61268
1.36105
1.16543
1.36438
1.16817
1.26432
1.0642
1.26725
1.0666
1.07361
1.07358
1.07607
1.07604
0.972752
0.972682
0.974912
0.974841
1.16538
1.36107
1.16812
1.36439
1.06401
1.2641
1.06641
1.26703
1.68371
1.86411
1.68799
1.86906
1.60879
1.79888
1.6126
1.80333
1.85183
1.67324
1.85813
1.67882
1.7879
1.59954
1.7938
1.60472
1.35293
1.15855
1.35753
1.16253
1.25693
1.05795
1.26117
1.06161
1.06731
1.06728
1.07099
1.07096
0.967026
0.966957
0.970416
0.970346
1.1585
1.35296
1.16248
1.35755
1.05776
1.25672
1.06142
1.26095
1.67353
1.85249
1.6791
1.85879
1.59947
1.78815
1.60465
1.79405
1.83779
1.66077
1.84526
1.66745
1.77458
1.58779
1.78173
1.59414
1.34258
1.1495
1.34825
1.15452
1.24726
1.04951
1.25259
1.05422
1.05887
1.05885
1.06358
1.06355
0.959172
0.959105
0.963581
0.963513
1.14946
1.34262
1.15447
1.34828
1.04933
1.24705
1.05404
1.25238
1.66106
1.83846
1.66774
1.84592
1.58773
1.77484
1.59408
1.78199
1.82164
1.6463
1.83013
1.65394
1.75901
1.57394
1.76725
1.58131
1.33032
1.1386
1.33691
1.14451
1.23563
1.03922
1.24191
1.04482
1.04862
1.0486
1.0542
1.05418
0.949516
0.94945
0.954792
0.954725
1.13856
1.33036
1.14447
1.33694
1.03905
1.23542
1.04465
1.2417
1.64659
1.8223
1.65424
1.83079
1.57389
1.75927
1.58125
1.76751
1.80358
1.63005
1.813
1.63856
1.74141
1.55824
1.75064
1.56651
1.31637
1.12609
1.32378
1.13278
1.22228
1.02732
1.22939
1.0337
1.0368
1.03677
1.04314
1.04311
0.938295
0.93823
0.944327
0.944261
1.12605
1.31641
1.13274
1.32381
1.02715
1.22208
1.03353
1.22919
1.63035
1.80424
1.63886
1.81366
1.55819
1.74168
1.56645
1.7509
1.78377
1.6122
1.79405
1.6215
1.72197
1.54087
1.7321
1.54995
1.3009
1.11212
1.30905
1.11952
1.2074
1.01397
1.21526
1.02106
1.02355
1.02353
1.03058
1.03056
0.925678
0.925614
0.932389
0.932324
1.11208
1.30094
1.11948
1.30909
1.0138
1.2072
1.02088
1.21506
1.6125
1.78443
1.62179
1.79471
1.54082
1.72223
1.5499
1.73236
1.76232
1.59283
1.77341
1.60287
1.70078
1.52192
1.71177
1.53178
1.28401
1.09681
1.29285
1.10486
1.19108
0.999288
1.19965
1.00703
1.009
1.00898
1.01667
1.01665
0.911775
0.911712
0.919116
0.919053
1.09677
1.28405
1.10482
1.29289
0.999122
1.19089
1.00686
1.19945
1.59313
1.76296
1.60317
1.77406
1.52188
1.70104
1.53173
1.71203
1.73928
1.57202
1.75115
1.58277
1.67793
1.50148
1.68974
1.51207
1.26578
1.08021
1.27528
1.0889
1.17341
0.983337
1.18264
0.991701
0.993203
0.993182
1.00149
1.00147
0.89665
0.896589
0.904594
0.904532
1.08018
1.26582
1.08886
1.27532
0.983175
1.17323
0.991537
1.18246
1.57232
1.73992
1.58307
1.75179
1.50144
1.67819
1.51203
1.69
1.71471
1.54982
1.72734
1.56126
1.65346
1.47959
1.66607
1.4909
1.24622
1.06236
1.25638
1.07167
1.15441
0.966145
1.1643
0.975124
0.976186
0.976166
0.985076
0.985055
0.880329
0.880269
0.888866
0.888805
1.06233
1.24627
1.07164
1.25642
0.965987
1.15423
0.974964
1.16412
1.5501
1.71533
1.56155
1.72796
1.47955
1.65371
1.49086
1.66633
1.68863
1.52622
1.702
1.53835
1.62738
1.45624
1.64079
1.46828
1.22535
1.04326
1.23617
1.05319
1.13407
0.947706
1.14463
0.957306
0.957943
0.957923
0.967444
0.967423
0.862804
0.862746
0.871941
0.871882
1.04322
1.22539
1.05316
1.23621
0.947551
1.13389
0.95715
1.14445
1.52649
1.68923
1.53863
1.70262
1.4562
1.62762
1.46824
1.64104
1.66106
1.50123
1.67517
1.51405
1.5997
1.43143
1.61391
1.44419
1.20315
1.02287
1.21463
1.03344
1.11238
0.927989
1.12361
0.938228
0.938443
0.938422
0.948572
0.948552
0.844043
0.843986
0.853798
0.85374
1.02283
1.20319
1.03341
1.21467
0.927838
1.11221
0.938075
1.12344
1.5015
1.66165
1.51432
1.67577
1.43139
1.59993
1.44415
1.61415
1.63203
1.47484
1.64687
1.48836
1.57041
1.40514
1.58542
1.41864
1.17958
1.00114
1.19174
1.01239
1.08929
0.906944
1.10122
0.917849
0.91763
0.91761
0.928418
0.928397
0.82399
0.823935
0.834393
0.834337
1.00111
1.17961
1.01235
1.19178
0.906796
1.08912
0.917699
1.10105
1.4751
1.6326
1.48862
1.64744
1.4051
1.57063
1.4186
1.58565
1.60154
1.44702
1.61709
1.46125
1.53949
1.37733
1.55531
1.39159
1.15458
0.978013
1.16746
0.989962
1.06475
0.884498
1.07741
0.896106
0.895434
0.895413
0.906917
0.906896
0.802571
0.802517
0.813661
0.813606
0.977977
1.15461
0.989927
1.16749
0.884354
1.06458
0.89596
1.07724
1.44727
1.60208
1.4615
1.61765
1.37729
1.5397
1.39155
1.55553
1.56958
1.41778
1.58587
1.43271
1.50693
1.34792
1.52357
1.36298
1.1281
0.9534
1.14172
0.966097
1.03866
0.860566
1.0521
0.872922
0.871762
0.871741
0.883988
0.883967
0.779693
0.77964
0.791518
0.791464
0.953363
1.12812
0.966061
1.14175
0.860425
1.0385
0.87278
1.05193
1.41801
1.5701
1.43296
1.5864
1.34788
1.50713
1.36294
1.52377
1.53614
1.38704
1.55316
1.40272
1.4727
1.31687
1.49017
1.33275
1.10005
0.9272
1.11446
0.940696
1.01095
0.835041
1.0252
0.8482
0.846506
0.846486
0.859531
0.85951
0.755248
0.755197
0.767863
0.76781
0.92716
1.10006
0.940658
1.11448
0.834904
1.01079
0.848061
1.02504
1.38726
1.53663
1.40295
1.55367
1.31682
1.47288
1.3327
1.49036
1.50126
1.35477
1.51899
1.37122
1.43677
1.28411
1.45508
1.30085
1.07034
0.899302
1.08558
0.913653
0.981495
0.807803
0.996624
0.821826
0.819542
0.819521
0.83343
0.833408
0.729114
0.729064
0.742582
0.742531
0.89926
1.07035
0.913613
1.08559
0.807668
0.981337
0.82169
0.996464
1.35497
1.50171
1.37143
1.51946
1.28406
1.43693
1.3008
1.45526
1.46498
1.32098
1.48339
1.33818
1.39911
1.24959
1.41828
1.2672
1.0389
0.869586
1.055
0.884854
0.9502
0.778716
0.966255
0.793672
0.790731
0.790708
0.805552
0.80553
0.701143
0.701093
0.71554
0.71549
0.869541
1.0389
0.88481
1.05501
0.778584
0.950043
0.793539
0.966097
1.32116
1.4654
1.33837
1.48383
1.24953
1.39926
1.26715
1.41843
1.42751
1.28578
1.44647
1.30365
1.35982
1.2133
1.37978
1.23178
1.00568
0.837909
1.02267
0.85417
0.916964
0.74762
0.933991
0.763595
0.759885
0.759862
0.775744
0.775722
0.671144
0.671097
0.686574
0.686526
0.837861
1.00567
0.854123
1.02267
0.747492
0.916809
0.763465
0.933836
1.28594
1.4279
1.30382
1.44687
1.21324
1.35995
1.23172
1.37991
1.3895
1.24949
1.40859
1.26783
1.3193
1.17542
1.33978
1.19465
0.97065
0.804015
0.988547
0.821423
0.881679
0.714255
0.89974
0.731401
0.726658
0.726634
0.743761
0.743737
0.6388
0.638754
0.655448
0.655401
0.803962
0.970631
0.821372
0.988535
0.71413
0.881526
0.731274
0.899586
1.24963
1.38985
1.26798
1.40896
1.17535
1.31941
1.19459
1.33989
1.35306
1.2129
1.37091
1.23127
1.27911
1.13637
1.29908
1.15612
0.933511
0.767198
0.952541
0.786202
0.843959
0.677967
0.863326
0.696695
0.690254
0.690228
0.709081
0.709056
0.603422
0.603377
0.621701
0.621655
0.767139
0.933478
0.786146
0.952516
0.677844
0.843806
0.696571
0.863173
1.21301
1.35337
1.23139
1.37124
1.13629
1.2792
1.15605
1.29918
1.32681
1.17591
1.33754
1.19476
1.24592
1.09529
1.26075
1.11646
0.891876
0.72531
0.913756
0.747259
0.801392
0.636821
0.823771
0.658344
0.648973
0.648945
0.670506
0.670479
0.563574
0.56353
0.58431
0.584266
0.725243
0.891826
0.747195
0.913714
0.636701
0.801238
0.658222
0.823618
1.17598
1.32707
1.19485
1.33782
1.0952
1.24599
1.11638
1.26083
1.3559
1.11577
1.32836
1.154
1.25929
1.02897
1.24128
1.07047
0.834102
0.673927
0.866541
0.701199
0.742803
0.58682
0.775564
0.613288
0.600757
0.600728
0.625911
0.625882
0.51752
0.517478
0.541486
0.541443
0.673852
0.83403
0.701128
0.86648
0.586704
0.742648
0.61317
0.775409
1.1158
1.35611
1.15405
1.32859
1.02886
1.25931
1.07037
1.24132
0.73876
0.601409
0.490713
0.401601
0.687231
0.556451
0.444905
0.362835
0.322813
0.179282
0.179501
0.0774364
0.287053
0.151399
0.153005
0.0603609
0.119641
0.119605
0.0389712
0.038954
0.0959081
0.0958799
0.0265204
0.0265099
0.179166
0.322615
0.0773639
0.179347
0.151305
0.286889
0.0603083
0.152885
0.601173
0.738569
0.401382
0.490512
0.556248
0.687063
0.362656
0.444739
1.06782
0.89376
0.923016
0.761677
1.00352
0.834383
0.864898
0.709318
0.568641
0.386839
0.452264
0.284647
0.515099
0.339581
0.407308
0.246704
0.306477
0.306423
0.212267
0.212219
0.262943
0.262895
0.178247
0.178207
0.386679
0.568403
0.284504
0.45204
0.339439
0.514882
0.246582
0.407112
0.893518
1.06766
0.761432
0.922833
0.834153
1.00335
0.709096
0.864727
1.29557
1.10976
1.18989
1.00841
1.22108
1.03859
1.12007
0.942711
0.771558
0.575176
0.674693
0.484013
0.703398
0.511833
0.613367
0.428245
0.4859
0.485839
0.39836
0.398301
0.425744
0.425686
0.346072
0.346018
0.575005
0.771323
0.483844
0.674451
0.511668
0.703163
0.428089
0.613136
1.10956
1.29548
1.00819
1.18977
1.03838
1.22096
0.942482
1.11993
1.47071
1.28144
1.38842
1.20027
1.38946
1.20197
1.31014
1.12453
0.941147
0.738954
0.86024
0.660259
0.862099
0.663198
0.786181
0.590254
0.645474
0.645416
0.568489
0.568428
0.572234
0.572174
0.501344
0.501284
0.738795
0.940948
0.660092
0.86002
0.663031
0.861878
0.590086
0.78595
1.28132
1.47074
1.2001
1.38839
1.2018
1.38942
1.12433
1.31006
1.60958
1.42026
1.5441
1.35455
1.52441
1.33547
1.46058
1.27209
1.08225
0.878296
1.01511
0.811699
0.995545
0.793406
0.931862
0.730995
0.782948
0.782897
0.717082
0.717026
0.699881
0.699824
0.638543
0.638484
0.878164
1.08211
0.811552
1.01493
0.793253
0.995357
0.730834
0.931656
1.42024
1.60975
1.35448
1.5442
1.33537
1.52449
1.27196
1.4606
1.72052
1.53259
1.66821
1.47949
1.63343
1.44465
1.58187
1.39289
1.19859
0.994855
1.14341
0.939405
1.1067
0.903458
1.05384
0.850965
0.898879
0.898839
0.843636
0.843589
0.808661
0.80861
0.756687
0.756632
0.994757
1.19851
0.93929
1.1433
0.903326
1.10656
0.850822
1.05367
1.53268
1.72083
1.47952
1.66845
1.44463
1.63361
1.39283
1.582
1.80885
1.6229
1.7673
1.58034
1.72114
1.53329
1.67977
1.49141
1.29343
1.09089
1.24863
1.04543
1.19818
0.994977
1.15486
0.951549
0.994957
0.994928
0.949416
0.949381
0.899652
0.899608
0.85642
0.856373
1.09083
1.29343
1.04535
1.24859
0.994869
1.19808
0.951429
1.15474
1.62309
1.8093
1.58048
1.76768
1.53336
1.72144
1.49143
1.68001
1.87849
1.69468
1.84588
1.66101
1.79099
1.60441
1.7582
1.57097
1.36976
1.16885
1.33389
1.13214
1.2724
1.06987
1.23744
1.03453
1.07331
1.07329
1.03638
1.03635
0.974457
0.974421
0.939122
0.939081
1.16883
1.36981
1.1321
1.33391
1.06979
1.27236
1.03444
1.23737
1.69496
1.87907
1.66125
1.84639
1.60455
1.7914
1.57107
1.75855
1.93243
1.75074
1.90734
1.72461
1.84561
1.66044
1.82013
1.63426
1.43014
1.23104
1.40195
1.20195
1.33158
1.13005
1.30389
1.10184
1.13608
1.13607
1.10669
1.10667
1.03481
1.03478
1.00649
1.00646
1.23105
1.43026
1.20194
1.40203
1.12999
1.33158
1.10177
1.30387
1.75112
1.93312
1.72494
1.90797
1.66065
1.84611
1.63444
1.82059
1.97321
1.79354
1.95443
1.77378
1.88732
1.70359
1.86805
1.68362
1.47694
1.27968
1.45528
1.25712
1.37778
1.17741
1.35635
1.1554
1.18538
1.18538
1.16248
1.16248
1.0825
1.08248
1.06031
1.06028
1.27972
1.47711
1.25714
1.45542
1.17738
1.37782
1.15535
1.35637
1.794
1.974
1.7742
1.95517
1.70387
1.88791
1.68387
1.8686
2.00289
1.82513
1.98941
1.81074
1.91805
1.73576
1.90405
1.72106
1.5122
1.31673
1.49608
1.29973
1.41284
1.21372
1.39677
1.19704
1.22313
1.22314
1.20579
1.20579
1.11924
1.11922
1.10233
1.10231