/*--------------------------------*- C++ -*----------------------------------*\
  =========                 |
  \\      /  F ield         | OpenFOAM: The Open Source CFD Toolbox
   \\    /   O peration     | Website:  https://openfoam.org
    \\  /    A nd           | Version:  9
     \\/     M anipulation  |
\*---------------------------------------------------------------------------*/
FoamFile
{
    format      ascii;
    class       volScalarField;
    location    "3.85";
    object      p;
}
// * * * * * * * * * * * * * * * * * * * * * * * * * * * * * * * * * * * * * //

dimensions      [0 2 -2 0 0 0 0];

internalField   nonuniform List<scalar> 
36360
(
20.1192
20.087
20.1128
20.091
20.097
20.1028
20.0978
20.0996
20.0995
20.1002
20.0999
20.1003
20.0992
20.0995
20.0988
20.0992
20.1002
20.1002
20.1003
20.1003
20.0995
20.0995
20.0993
20.0993
20.1002
20.0995
20.1003
20.0999
20.0995
20.0992
20.0992
20.0988
20.087
20.1192
20.091
20.1128
20.1028
20.097
20.0996
20.0978
20.1108
20.095
20.1151
20.0912
20.0823
20.1179
20.0902
20.1102
20.0994
20.0997
20.0994
20.1001
20.0997
20.0989
20.0994
20.0994
20.0998
20.0998
20.1001
20.1001
20.099
20.099
20.0994
20.0994
20.0997
20.0994
20.1001
20.0994
20.0989
20.0997
20.0994
20.0994
20.095
20.1108
20.0912
20.1151
20.1179
20.0823
20.1102
20.0903
20.1016
20.1025
20.1062
20.0989
20.0662
20.133
20.0742
20.1256
20.1011
20.099
20.1
20.0993
20.1018
20.0984
20.1006
20.0986
20.0989
20.0989
20.0994
20.0994
20.0983
20.0983
20.0986
20.0986
20.099
20.1011
20.0993
20.1
20.0984
20.1018
20.0986
20.1006
20.1025
20.1016
20.0989
20.1062
20.133
20.0662
20.1256
20.0742
20.0926
20.1087
20.097
20.1058
20.0512
20.1456
20.0585
20.1396
20.1041
20.0988
20.1025
20.0988
20.1052
20.0983
20.1034
20.0983
20.098
20.098
20.0984
20.0984
20.0975
20.0975
20.0979
20.0979
20.0988
20.104
20.0988
20.1025
20.0983
20.1052
20.0983
20.1034
20.1087
20.0927
20.1058
20.097
20.1456
20.0512
20.1396
20.0585
20.0846
20.1132
20.0885
20.1112
20.038
20.1555
20.0444
20.1509
20.1075
20.0992
20.1058
20.0989
20.109
20.0987
20.1071
20.0985
20.0973
20.0973
20.0976
20.0976
20.0969
20.097
20.0972
20.0972
20.0992
20.1075
20.0989
20.1058
20.0988
20.109
20.0985
20.1071
20.1132
20.0846
20.1112
20.0885
20.1554
20.0381
20.1508
20.0444
20.0776
20.1163
20.081
20.1149
20.0268
20.1629
20.0322
20.1594
20.1108
20.0999
20.1091
20.0995
20.1127
20.0995
20.1108
20.0991
20.0968
20.0968
20.097
20.097
20.0966
20.0966
20.0968
20.0967
20.0999
20.1108
20.0995
20.1092
20.0995
20.1127
20.0991
20.111
20.1163
20.0776
20.1149
20.081
20.1629
20.0268
20.1595
20.0322
20.0716
20.1183
20.0745
20.1174
20.0173
20.1684
20.0218
20.1659
20.1138
20.1009
20.1123
20.1004
20.116
20.1004
20.1144
20.0999
20.0967
20.0967
20.0967
20.0967
20.0965
20.0965
20.0965
20.0965
20.1009
20.1138
20.1004
20.1123
20.1004
20.116
20.0999
20.1144
20.1183
20.0716
20.1174
20.0745
20.1684
20.0174
20.1659
20.0219
20.0665
20.1195
20.069
20.119
20.0094
20.1725
20.0132
20.1706
20.1163
20.1019
20.1151
20.1014
20.1188
20.1014
20.1175
20.1009
20.0967
20.0967
20.0966
20.0966
20.0965
20.0965
20.0965
20.0965
20.1019
20.1163
20.1014
20.1151
20.1014
20.1188
20.1009
20.1175
20.1195
20.0665
20.119
20.069
20.1725
20.0095
20.1706
20.0132
20.0622
20.1202
20.0643
20.1199
20.0028
20.1755
20.0059
20.1741
20.1184
20.103
20.1174
20.1025
20.1211
20.1024
20.12
20.1019
20.0969
20.0969
20.0968
20.0968
20.0967
20.0967
20.0966
20.0966
20.1029
20.1184
20.1024
20.1174
20.1024
20.1211
20.1019
20.12
20.1202
20.0622
20.1199
20.0643
20.1754
20.0029
20.1741
20.006
20.0585
20.1206
20.0603
20.1204
19.9973
20.1775
20
20.1766
20.1202
20.1039
20.1193
20.1034
20.123
20.1033
20.1221
20.1029
20.0972
20.0972
20.097
20.097
20.0971
20.0971
20.0969
20.0969
20.1039
20.1201
20.1034
20.1193
20.1033
20.123
20.1029
20.1221
20.1206
20.0585
20.1204
20.0603
20.1775
19.9974
20.1766
20
20.0554
20.1206
20.0569
20.1206
19.9928
20.179
19.995
20.1783
20.1215
20.1047
20.1209
20.1043
20.1244
20.1041
20.1237
20.1037
20.0976
20.0976
20.0974
20.0974
20.0974
20.0974
20.0972
20.0972
20.1047
20.1215
20.1043
20.1208
20.1041
20.1244
20.1037
20.1237
20.1206
20.0554
20.1206
20.0569
20.179
19.9929
20.1783
19.9951
20.0528
20.1206
20.054
20.1206
19.9891
20.1799
19.9909
20.1795
20.1224
20.1054
20.122
20.1051
20.1255
20.1048
20.125
20.1045
20.098
20.098
20.0978
20.0978
20.0978
20.0978
20.0976
20.0976
20.1054
20.1224
20.1051
20.122
20.1048
20.1254
20.1045
20.1249
20.1206
20.0528
20.1206
20.0541
20.1799
19.9892
20.1795
19.991
20.0506
20.1204
20.0516
20.1205
19.9861
20.1805
19.9875
20.1803
20.1231
20.106
20.1228
20.1058
20.1262
20.1054
20.1259
20.1051
20.0984
20.0984
20.0982
20.0982
20.0982
20.0982
20.098
20.098
20.106
20.1231
20.1057
20.1228
20.1054
20.1262
20.1051
20.1258
20.1204
20.0506
20.1205
20.0516
20.1805
19.9862
20.1802
19.9876
20.0487
20.1201
20.0496
20.1203
19.9836
20.1808
19.9848
20.1807
20.1235
20.1065
20.1233
20.1063
20.1267
20.1058
20.1265
20.1056
20.0987
20.0987
20.0986
20.0985
20.0985
20.0985
20.0983
20.0983
20.1065
20.1235
20.1063
20.1233
20.1058
20.1267
20.1056
20.1265
20.1201
20.0487
20.1202
20.0496
20.1807
19.9837
20.1806
19.9849
20.0471
20.1198
20.0478
20.12
19.9817
20.1808
19.9826
20.1808
20.1238
20.1069
20.1237
20.1067
20.127
20.1062
20.1269
20.106
20.099
20.099
20.0989
20.0989
20.0988
20.0988
20.0986
20.0986
20.1069
20.1238
20.1067
20.1237
20.1062
20.127
20.106
20.1269
20.1198
20.0471
20.12
20.0479
20.1807
19.9817
20.1808
19.9827
20.0457
20.1195
20.0464
20.1196
19.9801
20.1806
19.9808
20.1807
20.1239
20.1071
20.1239
20.107
20.1271
20.1064
20.1271
20.1063
20.0993
20.0993
20.0992
20.0992
20.099
20.0989
20.0989
20.0989
20.1071
20.1239
20.107
20.1239
20.1064
20.1271
20.1063
20.1271
20.1194
20.0458
20.1196
20.0464
20.1806
19.9802
20.1807
19.9809
20.0446
20.1191
20.0451
20.1193
19.9788
20.1803
19.9794
20.1804
20.1239
20.1073
20.1239
20.1072
20.1271
20.1065
20.1271
20.1064
20.0995
20.0995
20.0994
20.0994
20.0991
20.0991
20.099
20.099
20.1073
20.1239
20.1072
20.1239
20.1065
20.1271
20.1064
20.1271
20.1191
20.0446
20.1193
20.0452
20.1802
19.9789
20.1804
19.9795
20.0437
20.1187
20.0441
20.1189
19.9779
20.1798
19.9783
20.18
20.1238
20.1073
20.1239
20.1073
20.1269
20.1065
20.127
20.1065
20.0996
20.0996
20.0995
20.0995
20.0991
20.0991
20.0991
20.0991
20.1073
20.1238
20.1073
20.1239
20.1065
20.1269
20.1065
20.127
20.1187
20.0437
20.1189
20.0441
20.1797
19.978
20.18
19.9784
20.0429
20.1183
20.0433
20.1185
19.9773
20.1792
19.9776
20.1795
20.1236
20.1073
20.1237
20.1073
20.1267
20.1064
20.1268
20.1065
20.0996
20.0996
20.0996
20.0996
20.0991
20.0991
20.0991
20.0991
20.1073
20.1236
20.1073
20.1237
20.1064
20.1267
20.1065
20.1268
20.1183
20.043
20.1185
20.0433
20.1792
19.9773
20.1795
19.9776
20.0424
20.118
20.0426
20.1182
19.9768
20.1786
19.977
20.1789
20.1234
20.1073
20.1235
20.1073
20.1263
20.1063
20.1265
20.1064
20.0997
20.0997
20.0997
20.0997
20.0991
20.0991
20.0991
20.0991
20.1072
20.1233
20.1073
20.1235
20.1063
20.1263
20.1063
20.1265
20.118
20.0424
20.1182
20.0426
20.1785
19.9769
20.1789
19.9771
20.0419
20.1176
20.0421
20.1178
19.9766
20.1779
19.9767
20.1782
20.123
20.1071
20.1232
20.1072
20.1259
20.1061
20.1261
20.1062
20.0996
20.0996
20.0997
20.0997
20.099
20.099
20.099
20.099
20.1071
20.123
20.1072
20.1232
20.1061
20.1259
20.1062
20.1261
20.1176
20.0419
20.1178
20.0421
20.1778
19.9767
20.1782
19.9768
20.0416
20.1173
20.0418
20.1175
19.9766
20.1771
19.9766
20.1775
20.1227
20.107
20.1228
20.1071
20.1254
20.1058
20.1257
20.1059
20.0996
20.0996
20.0996
20.0996
20.0988
20.0988
20.0989
20.0989
20.107
20.1226
20.107
20.1228
20.1058
20.1254
20.1059
20.1256
20.1173
20.0417
20.1174
20.0418
20.177
19.9766
20.1774
19.9766
20.0415
20.117
20.0415
20.1171
19.9767
20.1762
19.9766
20.1767
20.1223
20.1068
20.1225
20.1069
20.1249
20.1055
20.1251
20.1057
20.0996
20.0996
20.0996
20.0996
20.0986
20.0986
20.0987
20.0987
20.1068
20.1222
20.1069
20.1224
20.1055
20.1248
20.1057
20.1251
20.1169
20.0415
20.1171
20.0416
20.1762
19.9768
20.1766
19.9767
20.0415
20.1166
20.0415
20.1168
19.9771
20.1754
19.9769
20.1758
20.1218
20.1066
20.122
20.1067
20.1243
20.1052
20.1246
20.1054
20.0995
20.0995
20.0995
20.0995
20.0985
20.0984
20.0985
20.0985
20.1066
20.1218
20.1067
20.122
20.1052
20.1242
20.1054
20.1245
20.1166
20.0415
20.1168
20.0415
20.1753
19.9772
20.1758
19.977
20.0417
20.1164
20.0416
20.1165
19.9776
20.1745
19.9773
20.1749
20.1214
20.1064
20.1216
20.1065
20.1236
20.1049
20.1239
20.105
20.0995
20.0995
20.0995
20.0995
20.0983
20.0983
20.0984
20.0984
20.1064
20.1214
20.1065
20.1216
20.1049
20.1236
20.105
20.1239
20.1164
20.0417
20.1165
20.0416
20.1744
19.9777
20.1749
19.9774
20.042
20.1161
20.0418
20.1162
19.9784
20.1735
19.978
20.174
20.1209
20.1062
20.1212
20.1063
20.123
20.1046
20.1233
20.1047
20.0995
20.0995
20.0995
20.0995
20.0981
20.0981
20.0982
20.0982
20.1062
20.1209
20.1063
20.1212
20.1045
20.123
20.1047
20.1233
20.1161
20.042
20.1162
20.0418
20.1735
19.9785
20.174
19.9781
20.0424
20.1159
20.0422
20.116
19.9793
20.1726
19.9788
20.173
20.1205
20.1061
20.1207
20.1062
20.1223
20.1043
20.1227
20.1044
20.0995
20.0995
20.0995
20.0995
20.098
20.098
20.0981
20.0981
20.1061
20.1205
20.1062
20.1207
20.1043
20.1223
20.1044
20.1226
20.1159
20.0425
20.116
20.0422
20.1725
19.9794
20.173
19.9789
20.0431
20.1157
20.0427
20.1158
19.9805
20.1715
19.9799
20.172
20.1201
20.106
20.1203
20.106
20.1217
20.104
20.122
20.1041
20.0996
20.0996
20.0996
20.0996
20.098
20.098
20.098
20.098
20.106
20.1201
20.106
20.1203
20.104
20.1217
20.1041
20.122
20.1157
20.0431
20.1158
20.0428
20.1715
19.9806
20.172
19.98
20.0439
20.1155
20.0435
20.1156
19.9819
20.1705
19.9812
20.171
20.1197
20.106
20.1199
20.106
20.121
20.1038
20.1213
20.1039
20.0998
20.0998
20.0997
20.0997
20.098
20.098
20.098
20.098
20.106
20.1197
20.106
20.1199
20.1038
20.121
20.1039
20.1213
20.1155
20.0439
20.1156
20.0435
20.1705
19.982
20.171
19.9813
20.0449
20.1154
20.0444
20.1154
19.9836
20.1694
19.9827
20.17
20.1193
20.106
20.1195
20.106
20.1204
20.1037
20.1207
20.1037
20.1001
20.1001
20.1
20.1
20.0981
20.0981
20.0981
20.0981
20.106
20.1193
20.106
20.1195
20.1037
20.1204
20.1037
20.1207
20.1154
20.045
20.1154
20.0444
20.1694
19.9837
20.1699
19.9828
20.0461
20.1153
20.0455
20.1153
19.9856
20.1683
19.9846
20.1688
20.119
20.1061
20.1192
20.1061
20.1198
20.1037
20.1201
20.1037
20.1005
20.1005
20.1003
20.1003
20.0984
20.0984
20.0982
20.0982
20.1061
20.119
20.1061
20.1191
20.1037
20.1198
20.1037
20.1201
20.1153
20.0462
20.1153
20.0455
20.1683
19.9856
20.1688
19.9846
20.0475
20.1152
20.0468
20.1152
19.9878
20.1671
19.9866
20.1677
20.1187
20.1064
20.1188
20.1062
20.1193
20.1038
20.1196
20.1037
20.101
20.101
20.1008
20.1008
20.0987
20.0987
20.0985
20.0985
20.1064
20.1187
20.1062
20.1188
20.1038
20.1193
20.1037
20.1195
20.1152
20.0475
20.1152
20.0468
20.1671
19.9879
20.1677
19.9867
20.0491
20.1151
20.0483
20.1151
19.9904
20.1658
19.989
20.1665
20.1185
20.1067
20.1186
20.1065
20.1188
20.104
20.1191
20.1039
20.1016
20.1016
20.1013
20.1013
20.0992
20.0992
20.0989
20.0989
20.1067
20.1185
20.1065
20.1186
20.104
20.1188
20.1039
20.119
20.1151
20.0491
20.1151
20.0483
20.1658
19.9904
20.1664
19.9891
20.0509
20.115
20.05
20.115
19.9933
20.1644
19.9918
20.1652
20.1183
20.1072
20.1184
20.1069
20.1185
20.1044
20.1186
20.1042
20.1024
20.1024
20.102
20.102
20.0998
20.0998
20.0995
20.0995
20.1072
20.1183
20.1069
20.1184
20.1044
20.1185
20.1042
20.1186
20.115
20.0509
20.115
20.05
20.1644
19.9933
20.1651
19.9918
20.0529
20.1148
20.0519
20.1149
19.9966
20.1629
19.9949
20.1637
20.1183
20.1077
20.1183
20.1074
20.1182
20.1049
20.1183
20.1046
20.1032
20.1032
20.1028
20.1028
20.1005
20.1005
20.1002
20.1002
20.1077
20.1182
20.1074
20.1183
20.1049
20.1182
20.1046
20.1183
20.1148
20.053
20.1149
20.0519
20.1629
19.9966
20.1637
19.9949
20.0551
20.1147
20.054
20.1148
20.0003
20.1612
19.9984
20.1621
20.1183
20.1084
20.1183
20.1081
20.1181
20.1055
20.1181
20.1052
20.1041
20.1041
20.1036
20.1036
20.1014
20.1014
20.1009
20.1009
20.1084
20.1183
20.108
20.1182
20.1055
20.1181
20.1052
20.1181
20.1147
20.0551
20.1148
20.054
20.1611
20.0003
20.1621
19.9984
20.0574
20.1146
20.0563
20.1146
20.0046
20.1591
20.0023
20.1602
20.1184
20.1092
20.1183
20.1088
20.1181
20.1063
20.1181
20.1059
20.105
20.105
20.1046
20.1045
20.1024
20.1024
20.1019
20.1019
20.1092
20.1184
20.1088
20.1183
20.1063
20.1181
20.1059
20.118
20.1146
20.0574
20.1146
20.0563
20.1591
20.0046
20.1602
20.0024
20.0592
20.1151
20.0585
20.1146
20.0097
20.1563
20.007
20.1578
20.1186
20.1101
20.1185
20.1096
20.1182
20.1072
20.1181
20.1068
20.1061
20.1061
20.1056
20.1056
20.1034
20.1034
20.1029
20.1029
20.1101
20.1186
20.1096
20.1185
20.1072
20.1182
20.1067
20.1181
20.1151
20.0592
20.1146
20.0585
20.1563
20.0098
20.1578
20.0071
20.0608
20.1156
20.059
20.1164
20.0157
20.1526
20.0126
20.1546
20.1193
20.1112
20.1189
20.1106
20.1186
20.1084
20.1183
20.1078
20.1073
20.1073
20.1067
20.1067
20.1046
20.1046
20.104
20.104
20.1112
20.1193
20.1106
20.1189
20.1084
20.1186
20.1078
20.1183
20.1155
20.0607
20.1164
20.059
20.1526
20.0158
20.1546
20.0127
20.1373
20.0724
20.1224
20.0826
20.131
20.0759
20.1181
20.0847
20.0964
20.1
20.0984
20.1001
20.0975
20.0998
20.0986
20.0996
20.1001
20.1001
20.1001
20.1001
20.0998
20.0998
20.0995
20.0995
20.1
20.0964
20.1001
20.0984
20.0998
20.0975
20.0996
20.0986
20.0724
20.1373
20.0826
20.1224
20.0759
20.131
20.0847
20.1181
20.1346
20.0788
20.1358
20.076
20.1282
20.0814
20.1299
20.0787
20.0937
20.0991
20.095
20.0997
20.0961
20.0993
20.0968
20.0997
20.0998
20.0998
20.1
20.1
20.0996
20.0996
20.0998
20.0998
20.0991
20.0937
20.0997
20.095
20.0993
20.0961
20.0997
20.0968
20.0788
20.1346
20.076
20.1357
20.0814
20.1282
20.0787
20.1299
20.1322
20.0828
20.1335
20.081
20.124
20.0857
20.1262
20.0837
20.0933
20.098
20.0932
20.0985
20.0964
20.0986
20.096
20.0989
20.0991
20.0991
20.0995
20.0995
20.0989
20.0989
20.0993
20.0993
20.098
20.0933
20.0985
20.0932
20.0986
20.0964
20.0989
20.096
20.0828
20.1321
20.081
20.1334
20.0857
20.124
20.0837
20.1262
20.1297
20.0848
20.1309
20.084
20.1196
20.0886
20.1217
20.0873
20.0944
20.0975
20.0938
20.0977
20.098
20.0983
20.0971
20.0984
20.0981
20.0981
20.0986
20.0986
20.0981
20.0981
20.0985
20.0985
20.0975
20.0944
20.0977
20.0938
20.0983
20.098
20.0984
20.0971
20.0848
20.1297
20.084
20.1309
20.0886
20.1196
20.0873
20.1217
20.1275
20.0855
20.1286
20.0853
20.1155
20.0901
20.1175
20.0895
20.0958
20.0976
20.0951
20.0975
20.1003
20.0986
20.0991
20.0984
20.0974
20.0974
20.0977
20.0977
20.0974
20.0974
20.0977
20.0977
20.0976
20.0958
20.0975
20.0951
20.0986
20.1003
20.0984
20.0991
20.0855
20.1275
20.0853
20.1285
20.0901
20.1155
20.0895
20.1175
20.1256
20.0854
20.1266
20.0855
20.1119
20.0907
20.1137
20.0905
20.0973
20.098
20.0966
20.0978
20.1026
20.0992
20.1015
20.0988
20.0969
20.0969
20.0971
20.0971
20.097
20.097
20.0971
20.0971
20.098
20.0973
20.0978
20.0966
20.0992
20.1026
20.0988
20.1015
20.0854
20.1256
20.0855
20.1265
20.0907
20.1119
20.0905
20.1137
20.124
20.0848
20.1248
20.0851
20.1088
20.0907
20.1103
20.0908
20.0985
20.0987
20.0979
20.0984
20.1045
20.1
20.1036
20.0996
20.0968
20.0968
20.0968
20.0968
20.0968
20.0968
20.0969
20.0969
20.0987
20.0985
20.0984
20.0979
20.1
20.1045
20.0996
20.1036
20.0848
20.124
20.0851
20.1248
20.0907
20.1088
20.0908
20.1103
20.1225
20.084
20.1232
20.0844
20.1061
20.0904
20.1074
20.0906
20.0995
20.0995
20.099
20.0991
20.1061
20.101
20.1053
20.1005
20.0969
20.0969
20.0968
20.0968
20.0969
20.0969
20.0969
20.0969
20.0995
20.0995
20.0991
20.099
20.1009
20.1061
20.1005
20.1053
20.084
20.1225
20.0844
20.1232
20.0904
20.1061
20.0906
20.1074
20.1211
20.0831
20.1218
20.0836
20.1037
20.0899
20.1048
20.0902
20.1002
20.1003
20.0999
20.0999
20.1073
20.1019
20.1067
20.1014
20.0973
20.0973
20.0971
20.0971
20.0972
20.0972
20.0971
20.0971
20.1003
20.1002
20.0999
20.0999
20.1019
20.1073
20.1014
20.1067
20.0831
20.1211
20.0836
20.1218
20.0899
20.1037
20.0902
20.1048
20.1198
20.0823
20.1205
20.0827
20.1016
20.0893
20.1026
20.0896
20.1008
20.1011
20.1006
20.1007
20.1082
20.1028
20.1078
20.1023
20.0977
20.0977
20.0975
20.0975
20.0976
20.0976
20.0974
20.0974
20.1011
20.1008
20.1007
20.1006
20.1028
20.1082
20.1023
20.1078
20.0823
20.1198
20.0827
20.1204
20.0893
20.1016
20.0896
20.1026
20.1186
20.0815
20.1192
20.0819
20.0997
20.0887
20.1006
20.089
20.1012
20.1017
20.101
20.1014
20.1089
20.1036
20.1086
20.1032
20.0982
20.0982
20.0979
20.0979
20.0981
20.0981
20.0979
20.0979
20.1017
20.1012
20.1014
20.101
20.1035
20.1089
20.1032
20.1086
20.0815
20.1186
20.0819
20.1192
20.0887
20.0997
20.089
20.1006
20.1175
20.0807
20.1181
20.0811
20.0981
20.0881
20.0989
20.0884
20.1015
20.1024
20.1013
20.1021
20.1095
20.1042
20.1092
20.1039
20.0987
20.0987
20.0984
20.0984
20.0986
20.0986
20.0983
20.0983
20.1023
20.1015
20.1021
20.1013
20.1042
20.1095
20.1039
20.1092
20.0807
20.1175
20.0811
20.118
20.0881
20.0981
20.0884
20.0989
20.1164
20.08
20.117
20.0804
20.0966
20.0875
20.0973
20.0878
20.1016
20.1029
20.1016
20.1026
20.11
20.1048
20.1098
20.1045
20.0992
20.0992
20.0989
20.0989
20.099
20.099
20.0988
20.0988
20.1029
20.1016
20.1026
20.1016
20.1048
20.11
20.1045
20.1098
20.0801
20.1164
20.0804
20.1169
20.0875
20.0966
20.0878
20.0973
20.1154
20.0794
20.1159
20.0797
20.0953
20.0869
20.0959
20.0872
20.1018
20.1033
20.1017
20.1031
20.1103
20.1053
20.1102
20.1051
20.0996
20.0996
20.0994
20.0994
20.0994
20.0994
20.0992
20.0992
20.1033
20.1018
20.1031
20.1017
20.1053
20.1103
20.1051
20.1102
20.0794
20.1154
20.0797
20.1159
20.0869
20.0953
20.0872
20.0959
20.1145
20.0789
20.115
20.0792
20.0941
20.0864
20.0947
20.0866
20.1018
20.1037
20.1018
20.1035
20.1105
20.1057
20.1104
20.1055
20.1
20.1
20.0998
20.0998
20.0997
20.0997
20.0996
20.0996
20.1037
20.1018
20.1035
20.1018
20.1057
20.1105
20.1055
20.1104
20.0789
20.1145
20.0792
20.1149
20.0864
20.0941
20.0866
20.0947
20.1136
20.0784
20.1141
20.0787
20.0931
20.0859
20.0936
20.0862
20.1019
20.1039
20.1019
20.1038
20.1106
20.1059
20.1106
20.1058
20.1003
20.1003
20.1001
20.1001
20.1
20.1
20.0999
20.0999
20.1039
20.1019
20.1038
20.1019
20.1059
20.1106
20.1058
20.1106
20.0785
20.1136
20.0787
20.114
20.0859
20.093
20.0862
20.0936
20.1128
20.0781
20.1132
20.0782
20.0921
20.0855
20.0926
20.0857
20.1019
20.1042
20.1019
20.1041
20.1107
20.1061
20.1106
20.1061
20.1005
20.1005
20.1004
20.1004
20.1003
20.1002
20.1001
20.1001
20.1042
20.1019
20.1041
20.1019
20.1061
20.1107
20.1061
20.1106
20.0781
20.1128
20.0783
20.1132
20.0855
20.0921
20.0857
20.0926
20.1121
20.0777
20.1125
20.0779
20.0913
20.0852
20.0917
20.0853
20.1018
20.1043
20.1019
20.1042
20.1107
20.1063
20.1107
20.1062
20.1008
20.1008
20.1007
20.1007
20.1004
20.1004
20.1003
20.1003
20.1043
20.1018
20.1042
20.1019
20.1063
20.1107
20.1062
20.1107
20.0777
20.1121
20.0779
20.1124
20.0852
20.0913
20.0854
20.0917
20.1115
20.0775
20.1118
20.0776
20.0906
20.0849
20.091
20.085
20.1018
20.1044
20.1018
20.1044
20.1107
20.1063
20.1107
20.1063
20.1009
20.1009
20.1009
20.1008
20.1005
20.1005
20.1005
20.1005
20.1044
20.1018
20.1044
20.1018
20.1063
20.1107
20.1063
20.1107
20.0775
20.1114
20.0776
20.1117
20.0849
20.0906
20.085
20.0909
20.1109
20.0773
20.1112
20.0774
20.09
20.0846
20.0903
20.0847
20.1017
20.1045
20.1017
20.1045
20.1106
20.1064
20.1107
20.1064
20.1011
20.1011
20.101
20.101
20.1006
20.1006
20.1006
20.1006
20.1045
20.1017
20.1045
20.1017
20.1063
20.1106
20.1063
20.1107
20.0773
20.1108
20.0774
20.1111
20.0846
20.09
20.0847
20.0903
20.1104
20.0772
20.1106
20.0772
20.0895
20.0844
20.0898
20.0845
20.1017
20.1046
20.1017
20.1045
20.1105
20.1063
20.1106
20.1063
20.1012
20.1012
20.1011
20.1011
20.1007
20.1007
20.1007
20.1007
20.1045
20.1017
20.1045
20.1017
20.1063
20.1105
20.1063
20.1106
20.0772
20.1103
20.0772
20.1106
20.0844
20.0895
20.0845
20.0897
20.11
20.0771
20.1102
20.0771
20.0891
20.0843
20.0893
20.0843
20.1016
20.1046
20.1016
20.1046
20.1104
20.1063
20.1105
20.1063
20.1013
20.1013
20.1012
20.1012
20.1007
20.1007
20.1007
20.1007
20.1046
20.1016
20.1046
20.1016
20.1063
20.1104
20.1063
20.1105
20.0771
20.1099
20.0771
20.1101
20.0843
20.0891
20.0843
20.0893
20.1097
20.0771
20.1098
20.0771
20.0889
20.0841
20.089
20.0842
20.1016
20.1046
20.1016
20.1046
20.1103
20.1062
20.1104
20.1062
20.1014
20.1014
20.1013
20.1013
20.1008
20.1007
20.1007
20.1007
20.1046
20.1016
20.1046
20.1016
20.1062
20.1103
20.1062
20.1104
20.0771
20.1096
20.0771
20.1098
20.0842
20.0889
20.0842
20.089
20.1094
20.0772
20.1095
20.0771
20.0887
20.0841
20.0888
20.0841
20.1016
20.1046
20.1016
20.1046
20.1102
20.1061
20.1102
20.1062
20.1015
20.1015
20.1014
20.1014
20.1008
20.1008
20.1008
20.1008
20.1046
20.1016
20.1046
20.1016
20.1061
20.1102
20.1062
20.1102
20.0772
20.1094
20.0771
20.1095
20.0841
20.0887
20.0841
20.0888
20.1093
20.0773
20.1094
20.0772
20.0887
20.0841
20.0887
20.0841
20.1016
20.1047
20.1016
20.1047
20.1101
20.1061
20.1101
20.1061
20.1016
20.1016
20.1015
20.1015
20.1009
20.1009
20.1008
20.1008
20.1047
20.1016
20.1047
20.1016
20.1061
20.11
20.1061
20.1101
20.0773
20.1093
20.0772
20.1093
20.0841
20.0886
20.0841
20.0887
20.1093
20.0774
20.1093
20.0774
20.0887
20.0842
20.0887
20.0841
20.1017
20.1048
20.1016
20.1047
20.1099
20.1061
20.11
20.1061
20.1018
20.1018
20.1017
20.1017
20.101
20.101
20.1009
20.1009
20.1048
20.1017
20.1047
20.1016
20.1061
20.1099
20.1061
20.11
20.0774
20.1093
20.0774
20.1093
20.0842
20.0887
20.0841
20.0887
20.1094
20.0778
20.1093
20.0776
20.0889
20.0843
20.0888
20.0842
20.1018
20.1049
20.1017
20.1048
20.1099
20.1061
20.1099
20.1061
20.102
20.102
20.1019
20.1019
20.1011
20.1011
20.101
20.101
20.1049
20.1018
20.1048
20.1017
20.1061
20.1098
20.1061
20.1099
20.0778
20.1093
20.0776
20.1093
20.0843
20.0889
20.0842
20.0888
20.1095
20.0783
20.1094
20.0781
20.0892
20.0844
20.0891
20.0843
20.1019
20.105
20.1018
20.105
20.1098
20.1061
20.1098
20.1061
20.1023
20.1023
20.1021
20.1021
20.1014
20.1014
20.1012
20.1012
20.105
20.1019
20.1049
20.1018
20.1061
20.1098
20.1061
20.1098
20.0784
20.1095
20.0781
20.1094
20.0844
20.0892
20.0844
20.089
20.1098
20.079
20.1096
20.0786
20.0897
20.0846
20.0894
20.0845
20.102
20.1053
20.102
20.1051
20.1098
20.1062
20.1098
20.1062
20.1027
20.1027
20.1025
20.1025
20.1017
20.1017
20.1015
20.1015
20.1053
20.102
20.1051
20.102
20.1062
20.1097
20.1062
20.1098
20.079
20.1097
20.0787
20.1096
20.0846
20.0897
20.0845
20.0894
20.1101
20.0798
20.1099
20.0793
20.0902
20.0847
20.0899
20.0847
20.1022
20.1056
20.1021
20.1054
20.1098
20.1064
20.1098
20.1063
20.1031
20.1031
20.1029
20.1029
20.102
20.102
20.1018
20.1018
20.1056
20.1022
20.1054
20.1021
20.1064
20.1098
20.1063
20.1098
20.0798
20.11
20.0794
20.1099
20.0847
20.0902
20.0847
20.0899
20.1105
20.08
20.1103
20.0799
20.0909
20.0853
20.0906
20.085
20.1025
20.1059
20.1024
20.1057
20.1098
20.1067
20.1098
20.1066
20.1036
20.1036
20.1034
20.1034
20.1025
20.1025
20.1023
20.1023
20.1059
20.1025
20.1057
20.1024
20.1067
20.1098
20.1065
20.1098
20.0801
20.1105
20.0799
20.1102
20.0853
20.0909
20.085
20.0906
20.111
20.0804
20.1107
20.0802
20.0917
20.0859
20.0913
20.0856
20.1029
20.1064
20.1027
20.1062
20.1099
20.1071
20.1099
20.1069
20.1042
20.1042
20.1039
20.1039
20.1031
20.1031
20.1028
20.1028
20.1064
20.1029
20.1061
20.1027
20.107
20.1099
20.1069
20.1098
20.0804
20.111
20.0802
20.1107
20.0859
20.0917
20.0856
20.0913
20.1115
20.0809
20.1112
20.0806
20.0926
20.0865
20.0921
20.0862
20.1033
20.107
20.1031
20.1066
20.1101
20.1075
20.11
20.1073
20.1049
20.1049
20.1046
20.1046
20.1038
20.1038
20.1034
20.1034
20.107
20.1033
20.1066
20.1031
20.1075
20.1101
20.1073
20.11
20.0809
20.1115
20.0807
20.1112
20.0865
20.0926
20.0862
20.0921
20.1119
20.0815
20.1117
20.0812
20.0935
20.0871
20.093
20.0868
20.1037
20.1076
20.1035
20.1072
20.1103
20.108
20.1102
20.1078
20.1057
20.1057
20.1053
20.1053
20.1045
20.1045
20.1041
20.1041
20.1076
20.1037
20.1072
20.1035
20.108
20.1103
20.1078
20.1102
20.0815
20.1119
20.0812
20.1117
20.0871
20.0935
20.0868
20.093
20.1122
20.0823
20.1121
20.0819
20.0944
20.0878
20.094
20.0874
20.1043
20.1083
20.1041
20.1079
20.1106
20.1087
20.1104
20.1083
20.1066
20.1066
20.1061
20.1061
20.1054
20.1054
20.1049
20.1049
20.1083
20.1043
20.1079
20.1041
20.1087
20.1106
20.1083
20.1104
20.0823
20.1122
20.0819
20.1121
20.0878
20.0944
20.0874
20.094
20.1122
20.0833
20.1123
20.0828
20.0953
20.0886
20.0949
20.0881
20.105
20.1091
20.1047
20.1086
20.111
20.1094
20.1108
20.109
20.1075
20.1075
20.107
20.107
20.1063
20.1062
20.1058
20.1058
20.1091
20.105
20.1086
20.1047
20.1094
20.111
20.109
20.1108
20.0833
20.1122
20.0828
20.1123
20.0886
20.0953
20.0881
20.0949
20.1116
20.0849
20.112
20.084
20.0958
20.0897
20.0956
20.0891
20.1058
20.1099
20.1054
20.1094
20.1115
20.1102
20.1112
20.1098
20.1084
20.1084
20.1079
20.1079
20.1072
20.1072
20.1067
20.1067
20.1099
20.1058
20.1094
20.1054
20.1102
20.1115
20.1098
20.1112
20.0849
20.1116
20.0841
20.112
20.0897
20.0958
20.0891
20.0956
20.1086
20.0886
20.1107
20.0862
20.0949
20.0921
20.0958
20.0905
20.1067
20.1109
20.1062
20.1104
20.112
20.1111
20.1117
20.1106
20.1093
20.1093
20.1089
20.1089
20.1082
20.1082
20.1077
20.1077
20.1109
20.1067
20.1104
20.1062
20.1111
20.112
20.1106
20.1117
20.0886
20.1086
20.0862
20.1107
20.0921
20.0949
20.0905
20.0958
20.1148
20.0829
20.1058
20.0918
20.0997
20.0885
20.0932
20.0945
20.1078
20.1121
20.1074
20.1115
20.113
20.1123
20.1126
20.1116
20.1103
20.1103
20.1098
20.1098
20.1092
20.1092
20.1087
20.1087
20.1121
20.1078
20.1115
20.1074
20.1123
20.113
20.1116
20.1126
20.0829
20.1148
20.0918
20.1058
20.0885
20.0997
20.0945
20.0932
20.1452
20.0674
20.1277
20.0788
20.1418
20.0692
20.1254
20.0802
20.0936
20.0997
20.0971
20.1
20.0949
20.0998
20.0976
20.0999
20.1001
20.1001
20.1001
20.1001
20.1
20.1
20.0999
20.0999
20.0997
20.0937
20.1
20.0971
20.0998
20.0949
20.0999
20.0976
20.0674
20.1452
20.0788
20.1277
20.0692
20.1418
20.0802
20.1254
20.1408
20.0782
20.1423
20.0736
20.1385
20.0778
20.1397
20.0741
20.0896
20.0977
20.0915
20.0989
20.0913
20.0984
20.093
20.0993
20.0998
20.0998
20.1
20.1
20.0998
20.0998
20.1
20.1
20.0977
20.0896
20.0989
20.0915
20.0984
20.0913
20.0993
20.093
20.0782
20.1408
20.0736
20.1423
20.0778
20.1385
20.0741
20.1397
20.1385
20.0843
20.1396
20.0816
20.1364
20.0828
20.1375
20.0807
20.0884
20.0957
20.0887
20.0966
20.0904
20.0969
20.0906
20.0976
20.0989
20.0989
20.0994
20.0994
20.099
20.099
20.0995
20.0995
20.0957
20.0884
20.0966
20.0887
20.0969
20.0904
20.0976
20.0906
20.0843
20.1385
20.0816
20.1396
20.0828
20.1364
20.0807
20.1375
20.1366
20.0875
20.1375
20.0862
20.1345
20.0853
20.1354
20.0843
20.0888
20.0946
20.0885
20.0951
20.091
20.096
20.0906
20.0964
20.0976
20.0976
20.0982
20.0982
20.098
20.098
20.0985
20.0985
20.0946
20.0888
20.0951
20.0885
20.096
20.091
20.0964
20.0906
20.0875
20.1366
20.0862
20.1375
20.0853
20.1344
20.0843
20.1353
20.1352
20.089
20.1358
20.0884
20.1329
20.0862
20.1336
20.0859
20.0896
20.0943
20.0892
20.0944
20.092
20.0959
20.0915
20.0959
20.0966
20.0966
20.097
20.097
20.0971
20.0971
20.0975
20.0975
20.0943
20.0896
20.0944
20.0892
20.0959
20.092
20.0959
20.0915
20.089
20.1351
20.0884
20.1358
20.0862
20.1329
20.0859
20.1336
20.134
20.0894
20.1346
20.0893
20.1316
20.0863
20.1322
20.0864
20.0903
20.0943
20.09
20.0942
20.0929
20.0962
20.0925
20.096
20.0959
20.0959
20.0962
20.0962
20.0966
20.0966
20.0968
20.0968
20.0943
20.0903
20.0942
20.09
20.0962
20.0929
20.096
20.0925
20.0894
20.134
20.0893
20.1345
20.0863
20.1316
20.0864
20.1322
20.133
20.0894
20.1335
20.0895
20.1304
20.0859
20.131
20.0862
20.0909
20.0946
20.0906
20.0944
20.0937
20.0968
20.0933
20.0965
20.0957
20.0957
20.0958
20.0958
20.0964
20.0964
20.0964
20.0964
20.0946
20.0909
20.0944
20.0906
20.0968
20.0937
20.0965
20.0933
20.0894
20.1329
20.0895
20.1334
20.0859
20.1304
20.0862
20.131
20.132
20.0891
20.1325
20.0893
20.1294
20.0853
20.1299
20.0856
20.0913
20.095
20.0911
20.0948
20.0943
20.0974
20.094
20.0971
20.0957
20.0957
20.0957
20.0957
20.0965
20.0965
20.0964
20.0964
20.095
20.0913
20.0948
20.0911
20.0974
20.0943
20.0971
20.094
20.0891
20.132
20.0893
20.1325
20.0853
20.1293
20.0856
20.1299
20.1311
20.0886
20.1316
20.0888
20.1283
20.0846
20.1288
20.0849
20.0916
20.0955
20.0915
20.0952
20.0947
20.098
20.0945
20.0977
20.096
20.096
20.0958
20.0958
20.0968
20.0968
20.0966
20.0966
20.0955
20.0916
20.0952
20.0915
20.098
20.0947
20.0977
20.0945
20.0886
20.1311
20.0888
20.1315
20.0846
20.1283
20.085
20.1288
20.1302
20.088
20.1307
20.0883
20.1274
20.0838
20.1279
20.0842
20.0918
20.0959
20.0917
20.0957
20.095
20.0986
20.0949
20.0983
20.0964
20.0964
20.0962
20.0962
20.0972
20.0972
20.097
20.097
20.0959
20.0918
20.0957
20.0917
20.0986
20.095
20.0983
20.0949
20.088
20.1302
20.0883
20.1306
20.0838
20.1273
20.0842
20.1278
20.1294
20.0874
20.1298
20.0877
20.1264
20.0831
20.1269
20.0834
20.0919
20.0964
20.0919
20.0962
20.0952
20.0991
20.0951
20.0989
20.0968
20.0968
20.0966
20.0966
20.0977
20.0977
20.0975
20.0975
20.0964
20.0919
20.0961
20.0919
20.0991
20.0952
20.0989
20.0951
20.0874
20.1293
20.0877
20.1298
20.0831
20.1264
20.0834
20.1269
20.1285
20.0869
20.129
20.0871
20.1255
20.0824
20.126
20.0827
20.092
20.0968
20.092
20.0966
20.0953
20.0997
20.0952
20.0994
20.0973
20.0973
20.0971
20.0971
20.0982
20.0982
20.0979
20.0979
20.0968
20.092
20.0966
20.092
20.0996
20.0953
20.0994
20.0953
20.0869
20.1285
20.0871
20.1289
20.0824
20.1255
20.0827
20.1259
20.1277
20.0863
20.1281
20.0866
20.1246
20.0818
20.1251
20.0821
20.092
20.0972
20.092
20.097
20.0954
20.1001
20.0953
20.0999
20.0978
20.0978
20.0975
20.0975
20.0987
20.0987
20.0984
20.0984
20.0972
20.092
20.097
20.092
20.1001
20.0954
20.0999
20.0953
20.0863
20.1277
20.0866
20.1281
20.0818
20.1246
20.0821
20.125
20.1269
20.0858
20.1273
20.0861
20.1238
20.0812
20.1242
20.0815
20.0921
20.0975
20.092
20.0974
20.0954
20.1005
20.0954
20.1003
20.0982
20.0982
20.098
20.098
20.0991
20.0991
20.0989
20.0989
20.0975
20.0921
20.0974
20.0921
20.1005
20.0954
20.1003
20.0954
20.0858
20.1269
20.0861
20.1273
20.0812
20.1237
20.0815
20.1241
20.1262
20.0854
20.1265
20.0856
20.1229
20.0807
20.1233
20.0809
20.0921
20.0978
20.0921
20.0977
20.0954
20.1008
20.0954
20.1007
20.0986
20.0986
20.0984
20.0984
20.0995
20.0995
20.0993
20.0993
20.0978
20.0921
20.0977
20.0921
20.1008
20.0954
20.1007
20.0954
20.0854
20.1261
20.0856
20.1265
20.0807
20.1229
20.0809
20.1233