/*--------------------------------*- C++ -*----------------------------------*\
  =========                 |
  \\      /  F ield         | OpenFOAM: The Open Source CFD Toolbox
   \\    /   O peration     | Website:  https://openfoam.org
    \\  /    A nd           | Version:  9
     \\/     M anipulation  |
\*---------------------------------------------------------------------------*/
FoamFile
{
    format      ascii;
    class       volVectorField;
    location    "3.85";
    object      U;
}
// * * * * * * * * * * * * * * * * * * * * * * * * * * * * * * * * * * * * * //

dimensions      [0 1 -1 0 0 0 0];

internalField   nonuniform List<vector> 
36360
(
(0.00491665 -0.126975 -0.496027)
(-0.00177272 -0.0901773 0.000242485)
(0.00551035 -0.132367 -0.499019)
(-0.00323012 -0.082665 0.000160281)
(0.00432503 -0.150925 -0.500475)
(0.00326457 -0.065429 -2.73742e-05)
(0.0105213 -0.163802 -0.501644)
(0.00146167 -0.0642987 -1.25442e-05)
(0.0033384 -0.0949271 -0.000162615)
(0.00192076 -0.0989654 -8.7596e-06)
(0.00147445 -0.0936022 -0.000115555)
(1.73539e-05 -0.0976343 -5.31576e-06)
(0.00625253 -0.0915248 4.01314e-05)
(0.00457134 -0.10354 -4.33082e-06)
(0.00674015 -0.0989086 5.17985e-06)
(0.00603315 -0.108662 -7.34768e-06)
(0.000502084 -0.101015 4.86211e-07)
(0.000502546 -0.101016 -4.8628e-07)
(-0.00150412 -0.099396 -3.98729e-08)
(-0.00150331 -0.0993975 3.86702e-08)
(0.00392316 -0.106333 -1.01004e-07)
(0.00392282 -0.106334 1.01347e-07)
(0.00600823 -0.109866 -1.88641e-06)
(0.0060078 -0.109868 1.88641e-06)
(0.00192068 -0.0989687 8.76433e-06)
(0.00333813 -0.0949306 0.000162606)
(1.7758e-05 -0.0976379 5.31612e-06)
(0.00147413 -0.0936061 0.000115547)
(0.00457056 -0.103544 4.33753e-06)
(0.00625178 -0.0915336 -4.00862e-05)
(0.00603251 -0.108666 7.34801e-06)
(0.00673976 -0.0989167 -5.16458e-06)
(-0.00177065 -0.0901773 -0.000242427)
(0.0049152 -0.126965 0.496029)
(-0.0032285 -0.0826659 -0.00016023)
(0.00550834 -0.132356 0.499021)
(0.00326584 -0.0654376 2.73122e-05)
(0.00432298 -0.150902 0.500476)
(0.00146344 -0.06431 1.25115e-05)
(0.0105176 -0.163775 0.501644)
(0.00743112 -0.123291 -0.493512)
(-0.00611961 -0.0931615 0.000138403)
(0.00658274 -0.126251 -0.494831)
(-0.00404256 -0.0911187 0.000192666)
(0.00443477 -0.143653 -0.500459)
(-0.00372461 -0.0656972 -0.000216524)
(0.00379491 -0.14763 -0.500723)
(-0.000368013 -0.0630777 -0.00011376)
(0.00220562 -0.0946985 -5.73592e-05)
(0.00243583 -0.0985431 -4.82263e-06)
(0.00309877 -0.0946438 -0.000109731)
(0.00267993 -0.0988592 -8.45301e-06)
(0.00343928 -0.0830326 0.000236193)
(0.00272621 -0.0959135 8.51304e-06)
(0.00500562 -0.0856025 0.000135133)
(0.0038585 -0.0988251 -3.19484e-08)
(0.0020997 -0.100549 -1.63285e-06)
(0.00209965 -0.10055 1.6409e-06)
(0.00197334 -0.100969 -1.74658e-07)
(0.00197335 -0.10097 1.78539e-07)
(0.00245154 -0.100287 -1.18086e-06)
(0.00245131 -0.100288 1.18688e-06)
(0.00319462 -0.102912 -4.96573e-07)
(0.00319435 -0.102913 4.99325e-07)
(0.00243571 -0.0985457 4.84362e-06)
(0.00220615 -0.0947012 5.73856e-05)
(0.00267968 -0.0988621 8.46504e-06)
(0.0030989 -0.0946469 0.000109743)
(0.00272579 -0.0959189 -8.48691e-06)
(0.00343932 -0.0830412 -0.000236066)
(0.00385774 -0.09883 4.67202e-08)
(0.00500522 -0.0856115 -0.000135047)
(-0.00611662 -0.0931604 -0.000138426)
(0.00742872 -0.123282 0.493515)
(-0.00403992 -0.0911181 -0.000192652)
(0.00658071 -0.126241 0.494834)
(-0.00372139 -0.065702 0.000216324)
(0.00443174 -0.143633 0.500459)
(-0.000365472 -0.0630846 0.000113633)
(0.00379235 -0.147608 0.500724)
(0.00820053 -0.118356 -0.491267)
(-0.00820732 -0.0954875 6.27072e-06)
(0.00788102 -0.120597 -0.492335)
(-0.00740231 -0.0944639 7.55758e-05)
(0.00518967 -0.135034 -0.500032)
(-0.00635839 -0.0725185 -0.000443267)
(0.00486086 -0.139173 -0.50023)
(-0.00546043 -0.0690065 -0.000327969)
(0.000762963 -0.0944413 4.30722e-05)
(0.00146583 -0.0973575 2.65547e-05)
(0.00137952 -0.0945108 -5.1938e-06)
(0.00193209 -0.0979308 7.82636e-06)
(0.00178356 -0.0806626 0.000430018)
(0.00126407 -0.0918607 4.47364e-05)
(0.00240943 -0.0813327 0.000336524)
(0.00182549 -0.0935155 2.40116e-05)
(0.00136255 -0.0992608 1.31248e-06)
(0.00136256 -0.0992616 -1.29688e-06)
(0.00175869 -0.0999255 -1.03056e-06)
(0.00175866 -0.0999263 1.04233e-06)
(0.00109599 -0.0964962 1.888e-06)
(0.00109596 -0.0964979 -1.87369e-06)
(0.00162036 -0.098085 -3.4917e-07)
(0.00162026 -0.0980868 3.591e-07)
(0.00146593 -0.0973596 -2.65075e-05)
(0.000763685 -0.094443 -4.30254e-05)
(0.00193211 -0.0979331 -7.79335e-06)
(0.0013802 -0.0945129 5.23208e-06)
(0.00126409 -0.0918659 -4.46805e-05)
(0.0017838 -0.0806696 -0.000429818)
(0.00182536 -0.0935209 -2.39712e-05)
(0.00240962 -0.0813406 -0.000336358)
(-0.00820412 -0.0954856 -6.37193e-06)
(0.00819742 -0.118349 0.491272)
(-0.00739923 -0.0944623 -7.56364e-05)
(0.00787816 -0.120589 0.49234)
(-0.00635495 -0.0725199 0.000442911)
(0.00518644 -0.135017 0.500033)
(-0.0054571 -0.0690094 0.000327692)
(0.00485755 -0.139155 0.500231)
(0.0086724 -0.11478 -0.489295)
(-0.00910889 -0.0971167 -0.000137763)
(0.00845318 -0.116438 -0.490211)
(-0.00873512 -0.0963607 -6.57277e-05)
(0.00559485 -0.127848 -0.499668)
(-0.007257 -0.0789408 -0.000671027)
(0.00541396 -0.131265 -0.499839)
(-0.00689821 -0.0758849 -0.000558507)
(8.96761e-05 -0.0947501 0.000119683)
(0.000845297 -0.0966337 7.35241e-05)
(0.000351022 -0.0945334 8.49405e-05)
(0.0011071 -0.0969226 4.90214e-05)
(0.00120069 -0.0812002 0.000587257)
(0.00066535 -0.0900652 9.55797e-05)
(0.0014138 -0.0807297 0.000513793)
(0.000909131 -0.0907741 6.91068e-05)
(0.000828133 -0.0982294 1.01789e-05)
(0.000828181 -0.0982301 -1.01548e-05)
(0.00105165 -0.0986866 5.13446e-06)
(0.00105168 -0.0986873 -5.11428e-06)
(0.000624947 -0.0945221 1.02426e-05)
(0.000624967 -0.0945237 -1.02084e-05)
(0.000798913 -0.0953685 5.48385e-06)
(0.000798915 -0.0953702 -5.4644e-06)
(0.000845466 -0.0966353 -7.34557e-05)
(9.04068e-05 -0.0947509 -0.000119636)
(0.00110725 -0.0969244 -4.8961e-05)
(0.000351718 -0.0945346 -8.48908e-05)
(0.000665494 -0.0900699 -9.55078e-05)
(0.00120089 -0.0812055 -0.000587027)
(0.000909227 -0.090779 -6.9037e-05)
(0.00141398 -0.0807358 -0.000513567)
(-0.00910546 -0.0971143 0.00013758)
(0.00866882 -0.114774 0.489302)
(-0.00873184 -0.0963584 6.55851e-05)
(0.00844973 -0.116431 0.490216)
(-0.00725348 -0.0789402 0.000670516)
(0.00559142 -0.127834 0.499669)
(-0.00689472 -0.0758852 0.000558071)
(0.00541046 -0.13125 0.49984)
(0.00904145 -0.1121 -0.487582)
(-0.00961388 -0.0983239 -0.00027487)
(0.0088632 -0.113347 -0.488368)
(-0.00938709 -0.0977678 -0.000208067)
(0.00583561 -0.122041 -0.499347)
(-0.00767901 -0.083956 -0.000881448)
(0.0057191 -0.124782 -0.499497)
(-0.00749101 -0.0816294 -0.000778923)
(-0.000195178 -0.0954347 0.000168894)
(0.000516337 -0.0964221 0.000122853)
(-7.65914e-05 -0.0950668 0.000147429)
(0.000656251 -0.0964767 9.86541e-05)
(0.00106606 -0.0828907 0.00070459)
(0.000336162 -0.0894078 0.00015033)
(0.00107365 -0.0819659 0.000650485)
(0.000479899 -0.0896345 0.00012281)
(0.000545899 -0.0976434 2.28618e-05)
(0.00054611 -0.0976439 -2.2901e-05)
(0.000666747 -0.0978878 1.61964e-05)
(0.000666803 -0.0978884 -1.61666e-05)
(0.000438128 -0.0933583 2.18742e-05)
(0.000438296 -0.09336 -2.24693e-05)
(0.000515232 -0.0938691 1.59615e-05)
(0.000515257 -0.0938705 -1.5773e-05)
(0.000516632 -0.0964232 -0.000122677)
(-0.000194588 -0.0954348 -0.000168807)
(0.000656387 -0.0964781 -9.86068e-05)
(-7.57865e-05 -0.0950672 -0.000147381)
(0.000336482 -0.0894115 -0.000149319)
(0.00106564 -0.0828939 -0.000703908)
(0.000480048 -0.0896388 -0.000122856)
(0.00107372 -0.0819705 -0.000650408)
(-0.00961022 -0.0983213 0.00027456)
(0.00903749 -0.112094 0.48759)
(-0.00938352 -0.0977654 0.000207857)
(0.00885931 -0.113342 0.488376)
(-0.00767545 -0.0839542 0.000880284)
(0.00583207 -0.12203 0.499349)
(-0.00748747 -0.0816283 0.00077844)
(0.00571542 -0.12477 0.499499)
(0.00935598 -0.110048 -0.486096)
(-0.00995898 -0.0991893 -0.000397261)
(0.00920143 -0.111009 -0.486766)
(-0.00979851 -0.0987932 -0.000337942)
(0.00601113 -0.117412 -0.499065)
(-0.00795646 -0.0876345 -0.00106628)
(0.00591852 -0.119597 -0.499195)
(-0.00781821 -0.0859439 -0.000976322)
(-0.000284532 -0.0961947 0.00019613)
(0.000349106 -0.0965232 0.000167474)
(-0.0002608 -0.0958131 0.000184726)
(0.000417039 -0.0964436 0.000145722)
(0.00117544 -0.0848931 0.000787232)
(0.000131906 -0.0893801 0.000200713)
(0.00111266 -0.0838836 0.000749475)
(0.000222775 -0.0893345 0.000174484)
(0.000376754 -0.0973802 3.71274e-05)
(0.000377059 -0.0973806 -3.70582e-05)
(0.00045267 -0.0974791 2.99473e-05)
(0.000452381 -0.0974796 -2.9954e-05)
(0.000323354 -0.0926488 3.55907e-05)
(0.000323668 -0.0926497 -3.57523e-05)
(0.00037722 -0.092958 2.91152e-05)
(0.000376919 -0.0929593 -2.85986e-05)
(0.000349144 -0.0965239 -0.00016725)
(-0.000284063 -0.0961946 -0.000196076)
(0.000417416 -0.0964446 -0.000145883)
(-0.00025945 -0.0958131 -0.000184858)
(0.000132061 -0.0893834 -0.000199306)
(0.00117486 -0.0848961 -0.000787069)
(0.000223215 -0.0893383 -0.000176942)
(0.00111284 -0.0838868 -0.000749379)
(-0.00995508 -0.099187 0.000396873)
(0.00935173 -0.110043 0.486105)
(-0.00979443 -0.0987907 0.000337755)
(0.00919732 -0.111004 0.486775)
(-0.00795278 -0.0876327 0.00106491)
(0.0060075 -0.117403 0.499066)
(-0.00781438 -0.0859421 0.000976782)
(0.0059148 -0.119587 0.499197)
(0.00962751 -0.108438 -0.484804)
(-0.0102254 -0.099802 -0.000503202)
(0.00949372 -0.109197 -0.485375)
(-0.0100979 -0.099522 -0.000452272)
(0.00615538 -0.113703 -0.498816)
(-0.00818877 -0.0902771 -0.00122386)
(0.0060755 -0.115458 -0.498929)
(-0.0080666 -0.089065 -0.00114818)
(-0.000244304 -0.0969239 0.000207988)
(0.000281964 -0.0967918 0.000204939)
(-0.000274192 -0.0965676 0.000203616)
(0.000306411 -0.0966437 0.00018715)
(0.00132162 -0.0868218 0.000844081)
(4.12039e-06 -0.0897062 0.000242655)
(0.0012485 -0.0858794 0.000818476)
(6.03022e-05 -0.0895116 0.00022238)
(0.000263911 -0.09733 5.07908e-05)
(0.000263995 -0.0973302 -5.06984e-05)
(0.000315114 -0.0973343 4.41197e-05)
(0.000315175 -0.0973347 -4.4032e-05)
(0.000232741 -0.0922511 4.8877e-05)
(0.000232838 -0.0922522 -4.87815e-05)
(0.000275576 -0.0924162 4.24537e-05)
(0.000275652 -0.0924176 -4.23174e-05)
(0.000282094 -0.0967922 -0.000204784)
(-0.000243653 -0.0969233 -0.000207949)
(0.000306567 -0.0966442 -0.000187003)
(-0.000273509 -0.0965672 -0.000203569)
(4.42314e-06 -0.0897086 -0.00024247)
(0.00132116 -0.0868234 -0.000843749)
(6.06034e-05 -0.0895143 -0.000222301)
(0.00124809 -0.0858812 -0.000818119)
(-0.0102212 -0.0997997 0.000502837)
(0.00962306 -0.108434 0.484814)
(-0.0100938 -0.0995196 0.000451931)
(0.00948921 -0.109193 0.485384)
(-0.00818485 -0.0902747 0.001223)
(0.00615173 -0.113695 0.498818)
(-0.0080628 -0.0890626 0.0011474)
(0.00607159 -0.115449 0.498931)
(0.00986205 -0.107141 -0.483683)
(-0.0104338 -0.100227 -0.000593001)
(0.00974602 -0.107758 -0.484171)
(-0.0103342 -0.100035 -0.000550018)
(0.0062779 -0.110694 -0.498599)
(-0.00838884 -0.0921688 -0.00135635)
(0.00620781 -0.112124 -0.498697)
(-0.00828277 -0.0913018 -0.00129309)
(-0.000151701 -0.0975655 0.000209812)
(0.000271929 -0.0971303 0.000234537)
(-0.000200721 -0.0972573 0.000209879)
(0.000271891 -0.0969566 0.000220695)
(0.00146454 -0.0885234 0.000881725)
(-6.86648e-05 -0.090207 0.000276629)
(0.00139638 -0.0877043 0.00086489)
(-3.78829e-05 -0.0899422 0.000260699)
(0.000188426 -0.0974089 6.26758e-05)
(0.000188501 -0.0974091 -6.25673e-05)
(0.000222104 -0.0973575 5.69984e-05)
(0.000222184 -0.0973577 -5.6898e-05)
(0.000160307 -0.092082 6.05125e-05)
(0.000160405 -0.0920828 -6.04035e-05)
(0.000194669 -0.092142 5.49293e-05)
(0.000194765 -0.092143 -5.48283e-05)
(0.000272012 -0.0971304 -0.000234369)
(-0.000151087 -0.0975647 -0.000209786)
(0.000271998 -0.0969569 -0.000220534)
(-0.000200096 -0.0972566 -0.000209847)
(-6.83696e-05 -0.0902088 -0.000276427)
(0.00146396 -0.0885242 -0.000881388)
(-3.75804e-05 -0.0899443 -0.000260506)
(0.00139585 -0.0877054 -0.000864555)
(-0.0104293 -0.100225 0.000592593)
(0.00985743 -0.107137 0.483694)
(-0.0103299 -0.100033 0.000549631)
(0.0097413 -0.107754 0.484181)
(-0.00838477 -0.0921664 0.0013554)
(0.00627419 -0.110686 0.498601)
(-0.0082788 -0.0912994 0.00129218)
(0.00620381 -0.112116 0.498699)
(0.0100632 -0.106062 -0.482703)
(-0.0105927 -0.100503 -0.000668073)
(0.00996317 -0.106579 -0.483116)
(-0.0105165 -0.100381 -0.000632215)
(0.00638064 -0.108212 -0.49841)
(-0.00855457 -0.0935122 -0.00146607)
(0.0063191 -0.109396 -0.498494)
(-0.0084646 -0.0928984 -0.00141383)
(-4.11247e-05 -0.0980987 0.000205558)
(0.000295369 -0.0974782 0.000256745)
(-9.67351e-05 -0.0978459 0.000208257)
(0.000280692 -0.0973057 0.000246471)
(0.00158677 -0.0899587 0.000905684)
(-0.000100999 -0.0907718 0.000302474)
(0.00153042 -0.0892737 0.000895104)
(-8.87168e-05 -0.0904858 0.0002905)
(0.00014375 -0.0975584 7.22454e-05)
(0.000143806 -0.0975584 -7.21224e-05)
(0.000162555 -0.0974777 6.77444e-05)
(0.000162621 -0.0974778 -6.76283e-05)
(0.000101403 -0.0920724 7.00896e-05)
(0.000101494 -0.092073 -6.99655e-05)
(0.000129062 -0.0920606 6.55717e-05)
(0.000129163 -0.0920614 -6.54549e-05)
(0.000295397 -0.0974781 -0.000256566)
(-4.05362e-05 -0.0980977 -0.000205544)
(0.000280745 -0.0973057 -0.000246297)
(-9.61403e-05 -0.097845 -0.000208237)
(-0.000100742 -0.0907729 -0.000302257)
(0.00158607 -0.0899589 -0.000905342)
(-8.84401e-05 -0.0904873 -0.00029029)
(0.00152978 -0.0892742 -0.000894764)
(-0.010588 -0.100501 0.000667632)
(0.0100585 -0.106059 0.482715)
(-0.010512 -0.100379 0.000631791)
(0.00995827 -0.106576 0.483128)
(-0.00855036 -0.0935098 0.00146505)
(0.00637686 -0.108205 0.498412)
(-0.00846049 -0.092896 0.00141284)
(0.00631502 -0.109389 0.498496)
(0.0102353 -0.105135 -0.481848)
(-0.0107101 -0.100658 -0.000730341)
(0.0101493 -0.105583 -0.482201)
(-0.0106538 -0.100595 -0.000700648)
(0.0064665 -0.106123 -0.498246)
(-0.00868739 -0.0944508 -0.00155606)
(0.00641296 -0.107125 -0.498317)
(-0.00861355 -0.0940247 -0.00151331)
(7.46027e-05 -0.0985209 0.000197925)
(0.000339671 -0.097798 0.00027272)
(1.75336e-05 -0.0983231 0.000202046)
(0.000315674 -0.0976432 0.000265422)
(0.00168379 -0.0911377 0.000920017)
(-0.000104925 -0.0913317 0.000321274)
(0.00163934 -0.0905781 0.000913823)
(-0.000105612 -0.0910549 0.000312668)
(0.000126802 -0.0977337 7.95588e-05)
(0.000126835 -0.0977337 -7.94205e-05)
(0.000132091 -0.0976452 7.61669e-05)
(0.000132135 -0.0976452 -7.60372e-05)
(6.34671e-05 -0.0921658 7.75258e-05)
(6.35447e-05 -0.0921662 -7.73872e-05)
(8.01067e-05 -0.0921088 7.40643e-05)
(8.01895e-05 -0.0921093 -7.39331e-05)
(0.000339646 -0.0977977 -0.000272522)
(7.51495e-05 -0.0985199 -0.000197919)
(0.000315676 -0.097643 -0.000265239)
(1.81066e-05 -0.0983221 -0.000202037)
(-0.000104705 -0.0913323 -0.000321043)
(0.00168305 -0.0911375 -0.000919671)
(-0.000105376 -0.0910558 -0.000312445)
(0.00163859 -0.0905781 -0.000913479)
(-0.0107052 -0.100657 0.000729866)
(0.0102304 -0.105132 0.48186)
(-0.010649 -0.100593 0.000700195)
(0.0101442 -0.10558 0.482213)
(-0.00868306 -0.0944484 0.00155498)
(0.00646267 -0.106117 0.498248)
(-0.00860931 -0.0940223 0.00151226)
(0.00640879 -0.107119 0.49832)
(0.0103817 -0.104309 -0.481095)
(-0.010795 -0.100711 -0.000781463)
(0.0103077 -0.104712 -0.481392)
(-0.0107536 -0.100697 -0.000757193)
(0.00653603 -0.104329 -0.498103)
(-0.00878736 -0.0950836 -0.00162912)
(0.00648933 -0.105194 -0.498163)
(-0.00872881 -0.0947999 -0.0015945)
(0.000180504 -0.0988378 0.000188701)
(0.000395849 -0.0980654 0.000283445)
(0.000131217 -0.0986927 0.000193442)
(0.000367073 -0.0979394 0.000278709)
(0.00178024 -0.0920804 0.000927631)
(-8.89905e-05 -0.0918422 0.000334257)
(0.00173237 -0.091637 0.000924491)
(-9.86514e-05 -0.0915945 0.00032841)
(0.000133601 -0.0979 8.48509e-05)
(0.000133612 -0.0978999 -8.4707e-05)
(0.000127569 -0.0978196 8.24268e-05)
(0.00012759 -0.0978195 -8.22864e-05)
(4.05555e-05 -0.0923141 8.30289e-05)
(4.06257e-05 -0.0923143 -8.28829e-05)
(5.05962e-05 -0.0922352 8.04981e-05)
(5.06693e-05 -0.0922355 -8.03558e-05)
(0.00039576 -0.098065 -0.000283248)
(0.000180926 -0.0988367 -0.000188705)
(0.000367012 -0.097939 -0.000278515)
(0.000131683 -0.0986917 -0.000193442)
(-8.87934e-05 -0.0918424 -0.000334019)
(0.00177965 -0.0920799 -0.000927283)
(-9.84441e-05 -0.0915949 -0.000328176)
(0.00173173 -0.0916367 -0.000924144)
(-0.01079 -0.100709 0.000780975)
(0.0103767 -0.104306 0.481108)
(-0.0107488 -0.100695 0.000756714)
(0.0103025 -0.104709 0.481405)
(-0.00878289 -0.0950812 0.001628)
(0.00653216 -0.104323 0.498105)
(-0.00872444 -0.0947976 0.00159339)
(0.00648509 -0.105189 0.498165)
(0.0105076 -0.103545 -0.48043)
(-0.0108504 -0.100669 -0.000822805)
(0.0104433 -0.103921 -0.480685)
(-0.0108236 -0.100701 -0.000803205)
(0.00659157 -0.102751 -0.497978)
(-0.00885476 -0.0954798 -0.00168781)
(0.00655149 -0.103517 -0.49803)
(-0.00881227 -0.0953077 -0.00166007)
(0.000265083 -0.0990455 0.000178997)
(0.000457984 -0.0982627 0.000289718)
(0.000227053 -0.0989552 0.000183872)
(0.000426701 -0.0981736 0.000287055)
(0.00189054 -0.092802 0.000930583)
(-5.9927e-05 -0.0922763 0.000342597)
(0.00183385 -0.0924675 0.000929563)
(-7.55338e-05 -0.0920694 0.000338929)
(0.00016052 -0.0980313 8.84754e-05)
(0.000160513 -0.0980312 -8.83251e-05)
(0.000144809 -0.0979714 8.6837e-05)
(0.00014481 -0.0979712 -8.66896e-05)
(2.81414e-05 -0.0924764 8.69129e-05)
(2.82056e-05 -0.0924764 -8.67602e-05)
(3.32333e-05 -0.0923951 8.51509e-05)
(3.33002e-05 -0.0923952 -8.50014e-05)
(0.000457831 -0.0982622 -0.000289511)
(0.00026533 -0.0990444 -0.000179007)
(0.000426583 -0.0981731 -0.000286855)
(0.000227413 -0.0989541 -0.000183879)
(-5.97437e-05 -0.0922762 -0.000342351)
(0.00189018 -0.0928011 -0.000930233)
(-7.53444e-05 -0.0920694 -0.000338687)
(0.00183336 -0.0924668 -0.000929214)
(-0.0108453 -0.100667 0.000822297)
(0.0105025 -0.103542 0.480443)
(-0.0108186 -0.1007 0.000802709)
(0.010438 -0.103919 0.480699)
(-0.00885017 -0.0954776 0.00168664)
(0.00658765 -0.102746 0.49798)
(-0.00880777 -0.0953054 0.00165893)
(0.00654719 -0.103512 0.498032)
(0.0106185 -0.10281 -0.479835)
(-0.010876 -0.100534 -0.000855794)
(0.0105606 -0.103175 -0.480049)
(-0.0108645 -0.100613 -0.000840103)
(0.00663508 -0.101331 -0.497869)
(-0.00889154 -0.0956831 -0.00173436)
(0.0065996 -0.102025 -0.497912)
(-0.00886309 -0.0956031 -0.00171241)
(0.000336282 -0.0991333 0.000169512)
(0.000526372 -0.0983748 0.000292503)
(0.00030122 -0.0991046 0.000174212)
(0.000491265 -0.0983301 0.000291384)
(0.002 -0.0933163 0.000930306)
(-2.27179e-05 -0.0926172 0.000347384)
(0.00194988 -0.0930831 0.000930749)
(-4.17956e-05 -0.0924587 0.000345357)
(0.000205492 -0.0981058 9.07602e-05)
(0.000205474 -0.0981056 -9.06051e-05)
(0.000180871 -0.0980767 8.97525e-05)
(0.000180857 -0.0980766 -8.95997e-05)
(2.5162e-05 -0.0926194 8.94933e-05)
(2.5224e-05 -0.0926193 -8.93356e-05)
(2.55141e-05 -0.0925516 8.83453e-05)
(2.55768e-05 -0.0925516 -8.81899e-05)
(0.000526203 -0.0983741 -0.000292294)
(0.000336558 -0.099132 -0.000169527)
(0.000491101 -0.0983294 -0.000291176)
(0.000301463 -0.0991034 -0.000174225)
(-2.2559e-05 -0.0926167 -0.000347134)
(0.00199953 -0.0933151 -0.000929953)
(-4.1626e-05 -0.0924583 -0.000345109)
(0.00194946 -0.0930821 -0.000930398)
(-0.0108708 -0.100532 0.000855278)
(0.0106133 -0.102807 0.479849)
(-0.0108594 -0.100611 0.000839592)
(0.0105552 -0.103173 0.480063)
(-0.00888685 -0.0956808 0.00173317)
(0.00663113 -0.101327 0.497871)
(-0.00885848 -0.0956008 0.00171124)
(0.00659525 -0.10202 0.497914)
(0.0107206 -0.102075 -0.479306)
(-0.01087 -0.100304 -0.0008823)
(0.0106665 -0.102444 -0.479484)
(-0.0108742 -0.100431 -0.00086969)
(0.00667021 -0.100015 -0.497773)
(-0.00889825 -0.09572 -0.001769)
(0.00663795 -0.100663 -0.497809)
(-0.00888512 -0.0957208 -0.00175346)
(0.000414092 -0.0991039 0.000160628)
(0.000604633 -0.0983905 0.000293224)
(0.000375028 -0.0991329 0.000164999)
(0.000564397 -0.0983952 0.000293039)
(0.00209168 -0.093645 0.000927834)
(1.95257e-05 -0.0928517 0.00034959)
(0.00204939 -0.0935023 0.000929256)
(-1.86359e-06 -0.0927479 0.000348753)
(0.000267555 -0.098105 9.20171e-05)
(0.000267529 -0.0981047 -9.18591e-05)
(0.000234466 -0.0981158 9.14847e-05)
(0.000234443 -0.0981155 -9.1328e-05)
(3.16968e-05 -0.0927144 9.10497e-05)
(3.17559e-05 -0.0927142 -9.08889e-05)
(2.72636e-05 -0.092674 9.03811e-05)
(2.7324e-05 -0.0926739 -9.02217e-05)
(0.000604458 -0.0983897 -0.000293015)
(0.000414425 -0.0991026 -0.000160647)
(0.000564224 -0.0983944 -0.00029283)
(0.00037533 -0.0991316 -0.000165016)
(1.96586e-05 -0.0928509 -0.000349337)
(0.00209114 -0.0936434 -0.00092748)
(-1.7187e-06 -0.0927472 -0.000348501)
(0.00204887 -0.0935009 -0.000928902)
(-0.0108646 -0.100302 0.000881779)
(0.0107154 -0.102073 0.47932)
(-0.0108689 -0.100429 0.000869172)
(0.010661 -0.102442 0.479498)
(-0.00889349 -0.0957176 0.00176779)
(0.00666625 -0.10001 0.497776)
(-0.00888042 -0.0957184 0.00175225)
(0.00663356 -0.100659 0.497812)
(0.0108188 -0.101315 -0.478816)
(-0.0108328 -0.0999723 -0.000903308)
(0.0107657 -0.1017 -0.478972)
(-0.0108524 -0.100151 -0.000893331)
(0.00669865 -0.0987572 -0.497687)
(-0.00888759 -0.0956113 -0.00179855)
(0.00666853 -0.0993803 -0.497719)
(-0.00888184 -0.0956873 -0.00178385)
(0.00050209 -0.0989563 0.000152569)
(0.000694369 -0.0982989 0.000292491)
(0.000457552 -0.0990452 0.00015649)
(0.00064816 -0.0983587 0.000292965)
(0.00217314 -0.0938019 0.000923869)
(6.5878e-05 -0.0929683 0.000349945)
(0.00213506 -0.0937441 0.000925988)
(4.24089e-05 -0.0929249 0.000349949)
(0.000346417 -0.0980116 9.25235e-05)
(0.000346383 -0.0980113 -9.2364e-05)
(0.000304931 -0.0980708 9.23334e-05)
(0.000304901 -0.0980705 -9.21744e-05)
(4.76685e-05 -0.0927359 9.17647e-05)
(4.77207e-05 -0.0927356 -9.16026e-05)
(3.87886e-05 -0.0927351 9.15192e-05)
(3.88459e-05 -0.0927349 -9.13573e-05)
(0.00069419 -0.098298 -0.000292283)
(0.000502471 -0.0989549 -0.000152591)
(0.000647981 -0.0983579 -0.000292756)
(0.000457905 -0.0990438 -0.000156511)
(6.59862e-05 -0.0929672 -0.000349691)
(0.00217254 -0.0938 -0.000923512)
(4.25277e-05 -0.092924 -0.000349696)
(0.00213448 -0.0937424 -0.000925632)
(-0.0108273 -0.0999705 0.000902784)
(0.0108135 -0.101313 0.478831)
(-0.010847 -0.100149 0.000892809)
(0.0107602 -0.101698 0.478987)
(-0.00888278 -0.0956087 0.00179732)
(0.00669468 -0.0987531 0.49769)
(-0.0088771 -0.0956848 0.00178264)
(0.00666412 -0.0993761 0.497721)
(0.0109186 -0.100506 -0.478372)
(-0.0107658 -0.0995313 -0.000919661)
(0.0108644 -0.100918 -0.478504)
(-0.0108003 -0.0997662 -0.000911907)
(0.00672511 -0.0975259 -0.497611)
(-0.00885303 -0.0953481 -0.00181957)
(0.00669577 -0.098141 -0.497638)
(-0.00885804 -0.0954975 -0.00180995)
(0.000603727 -0.0986831 0.000145432)
(0.000797555 -0.0980877 0.000290756)
(0.000551864 -0.0988359 0.000148901)
(0.000744335 -0.0982089 0.000291688)
(0.00224916 -0.0937935 0.000918877)
(0.000115772 -0.092956 0.000348834)
(0.00221358 -0.0938179 0.000921449)
(9.08886e-05 -0.0929779 0.000349494)
(0.000443312 -0.0978083 9.24828e-05)
(0.000443272 -0.097808 -9.23233e-05)
(0.000392571 -0.0979246 9.25486e-05)
(0.000392534 -0.0979243 -9.2389e-05)
(7.46864e-05 -0.0926619 9.20059e-05)
(7.47356e-05 -0.0926615 -9.18435e-05)
(5.95108e-05 -0.0927125 9.19125e-05)
(5.95632e-05 -0.0927121 -9.17502e-05)
(0.000797374 -0.0980867 -0.000290549)
(0.00060416 -0.0986816 -0.000145456)
(0.000744154 -0.098208 -0.00029148)
(0.000552266 -0.0988344 -0.000148924)
(0.000115856 -0.0929547 -0.00034858)
(0.00224852 -0.0937914 -0.000918521)
(9.09806e-05 -0.0929768 -0.00034924)
(0.00221295 -0.0938159 -0.000921092)
(-0.0107602 -0.0995295 0.000919136)
(0.0109132 -0.100504 0.478387)
(-0.0107948 -0.0997644 0.000911383)
(0.0108588 -0.100916 0.478519)
(-0.00884818 -0.0953454 0.00181833)
(0.00672112 -0.097522 0.497614)
(-0.00885326 -0.0954948 0.00180872)
(0.00669134 -0.098137 0.49764)
(0.0110245 -0.0996227 -0.477961)
(-0.0106695 -0.0989675 -0.00093202)
(0.0109663 -0.100075 -0.478074)
(-0.010718 -0.0992658 -0.000926198)
(0.00674985 -0.0962802 -0.497543)
(-0.00879344 -0.0949371 -0.00183423)
(0.00672004 -0.0969069 -0.497565)
(-0.00881082 -0.0951611 -0.00182755)
(0.000716566 -0.0982729 0.000139264)
(0.000915297 -0.0977428 0.000288317)
(0.000661055 -0.0984958 0.000142248)
(0.000854996 -0.0979327 0.000289571)
(0.00232383 -0.0936162 0.000913302)
(0.000172551 -0.0928014 0.000346982)
(0.00228866 -0.0937253 0.000916112)
(0.000143571 -0.0928965 0.000348033)
(0.000559122 -0.0974783 9.20622e-05)
(0.000559075 -0.097478 -9.19035e-05)
(0.000498779 -0.0976602 9.2299e-05)
(0.000498735 -0.0976599 -9.21399e-05)
(0.000114596 -0.09247 9.1755e-05)
(0.000114641 -0.0924695 -9.15934e-05)
(9.2691e-05 -0.0925815 9.19281e-05)
(9.27377e-05 -0.092581 -9.1766e-05)
(0.000915094 -0.0977417 -0.000288111)
(0.000716929 -0.0982713 -0.000139289)
(0.00085481 -0.0979317 -0.000289365)
(0.000661492 -0.0984943 -0.000142273)
(0.000172624 -0.0927999 -0.00034673)
(0.00232314 -0.0936138 -0.000912944)
(0.000143649 -0.0928951 -0.00034778)
(0.00228799 -0.093723 -0.000915756)
(-0.010664 -0.0989657 0.000931495)
(0.0110192 -0.0996207 0.477977)
(-0.0107125 -0.099264 0.000925674)
(0.0109607 -0.100073 0.47809)
(-0.00878857 -0.0949342 0.00183299)
(0.00674584 -0.0962765 0.497546)
(-0.008806 -0.0951583 0.00182631)
(0.00671561 -0.0969031 0.497568)
(0.0111407 -0.0986387 -0.477576)
(-0.0105449 -0.0982663 -0.000940847)
(0.011077 -0.0991447 -0.477673)
(-0.0106083 -0.0986348 -0.000936704)
(0.00677701 -0.0949839 -0.497481)
(-0.00871359 -0.0943748 -0.00184367)
(0.00674623 -0.09564 -0.4975)
(-0.00874092 -0.0946751 -0.0018395)
(0.000834647 -0.0977135 0.000133985)
(0.00104884 -0.0972482 0.000285376)
(0.000773998 -0.0980125 0.000136525)
(0.000979822 -0.0975151 0.000286854)
(0.00239924 -0.0932739 0.00090734)
(0.000235755 -0.0924931 0.000344323)
(0.00236304 -0.0934655 0.000910326)
(0.000203616 -0.0926669 0.000345715)
(0.000695724 -0.0970016 9.13463e-05)
(0.000695672 -0.0970012 -9.11895e-05)
(0.000624744 -0.0972594 9.1723e-05)
(0.000624694 -0.097259 -9.15651e-05)
(0.000166746 -0.0921397 9.11668e-05)
(0.000166789 -0.0921391 -9.10074e-05)
(0.000139761 -0.0923228 9.14927e-05)
(0.000139805 -0.0923223 -9.13321e-05)
(0.00104863 -0.0972471 -0.000285173)
(0.000835031 -0.0977118 -0.000134011)
(0.000979613 -0.097514 -0.00028665)
(0.000774357 -0.0980109 -0.00013655)
(0.000235817 -0.0924914 -0.000344073)
(0.00239854 -0.0932713 -0.000906983)
(0.000203684 -0.0926653 -0.000345464)
(0.00236234 -0.093463 -0.000909969)
(-0.0105393 -0.0982645 0.000940324)
(0.0111354 -0.0986367 0.477592)
(-0.0106028 -0.098633 0.000936181)
(0.0110714 -0.0991427 0.477689)
(-0.00870871 -0.0943718 0.00184243)
(0.00677302 -0.0949804 0.497483)
(-0.00873609 -0.0946722 0.00183826)
(0.0067418 -0.0956364 0.497502)
(0.0112726 -0.0975291 -0.477209)
(-0.0103878 -0.0974102 -0.000946662)
(0.0112003 -0.0981012 -0.477291)
(-0.0104674 -0.0978585 -0.000943968)
(0.0068085 -0.0936044 -0.497423)
(-0.00861296 -0.0936499 -0.00184857)
(0.00677456 -0.0943065 -0.497439)
(-0.00864935 -0.094033 -0.00184659)
(0.00097685 -0.0969894 0.00012961)
(0.00120388 -0.0965866 0.000282089)
(0.000903562 -0.097373 0.000131711)
(0.00112369 -0.0969393 0.000283722)
(0.00247809 -0.0927571 0.000901166)
(0.000305874 -0.0920147 0.000341153)
(0.0024403 -0.0930377 0.000904243)
(0.000270146 -0.0922757 0.000342786)
(0.000855239 -0.096359 9.04011e-05)
(0.000855185 -0.0963586 -9.02472e-05)
(0.000772486 -0.096702 9.08811e-05)
(0.000772433 -0.0967016 -9.07257e-05)
(0.000227511 -0.0916488 9.03405e-05)
(0.000227551 -0.0916481 -9.01841e-05)
(0.00019596 -0.0919152 9.07777e-05)
(0.000196001 -0.0919146 -9.06197e-05)
(0.00120367 -0.0965854 -0.000281889)
(0.000977253 -0.0969877 -0.000129636)
(0.00112348 -0.0969381 -0.00028352)
(0.000903954 -0.0973713 -0.000131737)
(0.000305919 -0.0920128 -0.000340906)
(0.00247737 -0.0927542 -0.00090081)
(0.000270198 -0.0922739 -0.000342537)
(0.00243958 -0.093035 -0.000903886)
(-0.0103822 -0.0974083 0.000946142)
(0.0112672 -0.0975272 0.477225)
(-0.0104619 -0.0978566 0.000943448)
(0.0111947 -0.0980992 0.477307)
(-0.0086081 -0.0936467 0.00184733)
(0.0068045 -0.0936011 0.497426)
(-0.00864452 -0.0940299 0.00184535)
(0.00677012 -0.0943031 0.497442)
(0.0114246 -0.0962669 -0.476861)
(-0.0101974 -0.0963803 -0.000949787)
(0.0113419 -0.0969186 -0.476934)
(-0.0102939 -0.0969181 -0.000948399)
(0.00684676 -0.0921063 -0.497371)
(-0.0084934 -0.0927495 -0.00184947)
(0.00680926 -0.092872 -0.497384)
(-0.00853936 -0.0932223 -0.00184943)
(0.00114447 -0.0960825 0.000126029)
(0.00138311 -0.0957388 0.000278548)
(0.00105832 -0.0965598 0.000127743)
(0.00129049 -0.096187 0.000280302)
(0.00256042 -0.0920516 0.000894868)
(0.000383554 -0.0913484 0.000337563)
(0.00252059 -0.0924284 0.000897999)
(0.000343818 -0.0917057 0.000339398)
(0.00104019 -0.09553 8.92847e-05)
(0.00104013 -0.0955296 -8.91343e-05)
(0.000944375 -0.095969 8.98462e-05)
(0.000944319 -0.0959685 -8.9694e-05)
(0.000298307 -0.0909739 8.93213e-05)
(0.000298344 -0.0909732 -8.91687e-05)
(0.000261499 -0.0913352 8.9851e-05)
(0.000261537 -0.0913345 -8.96964e-05)
(0.0013829 -0.0957375 -0.000278352)
(0.00114488 -0.0960806 -0.000126056)
(0.00129028 -0.0961858 -0.000280104)
(0.00105872 -0.096558 -0.000127769)
(0.000383586 -0.0913463 -0.00033732)
(0.00255966 -0.0920486 -0.000894514)
(0.000343855 -0.0917037 -0.000339153)
(0.00251985 -0.0924255 -0.000897644)
(-0.0101918 -0.0963783 0.000949272)
(0.0114192 -0.096265 0.476878)
(-0.0102883 -0.0969162 0.000947883)
(0.0113363 -0.0969167 0.47695)
(-0.00848857 -0.0927462 0.00184823)
(0.00684277 -0.0921032 0.497373)
(-0.00853456 -0.093219 0.00184819)
(0.00680482 -0.0928688 0.497387)
(0.0116001 -0.0948248 -0.476527)
(-0.00997209 -0.0951558 -0.000950482)
(0.0115051 -0.0955699 -0.476589)
(-0.0100862 -0.0957936 -0.000950271)
(0.00689346 -0.0904555 -0.497322)
(-0.00835435 -0.0916579 -0.00184678)
(0.0068512 -0.0913018 -0.497333)
(-0.00840979 -0.0922284 -0.00184849)
(0.00133903 -0.094973 0.000123158)
(0.00158912 -0.0946841 0.000274783)
(0.00123916 -0.0955542 0.000124528)
(0.00148277 -0.0952385 0.000276646)
(0.00264815 -0.0911422 0.000888481)
(0.000470323 -0.0904744 0.000333602)
(0.00260539 -0.091623 0.000891655)
(0.000425836 -0.0909381 0.000335618)
(0.00125323 -0.0944925 8.80199e-05)
(0.00125317 -0.0944921 -8.78736e-05)
(0.00114303 -0.0950386 8.86534e-05)