/*--------------------------------*- C++ -*----------------------------------*\
  =========                 |
  \\      /  F ield         | OpenFOAM: The Open Source CFD Toolbox
   \\    /   O peration     | Website:  https://openfoam.org
    \\  /    A nd           | Version:  9
     \\/     M anipulation  |
\*---------------------------------------------------------------------------*/
FoamFile
{
    format      ascii;
    class       volScalarField;
    location    "4.85";
    object      p;
}
// * * * * * * * * * * * * * * * * * * * * * * * * * * * * * * * * * * * * * //

dimensions      [0 2 -2 0 0 0 0];

internalField   nonuniform List<scalar> 
36360
(
20.1352
20.0732
20.1301
20.077
20.0848
20.1146
20.0892
20.1065
20.0983
20.1002
20.0991
20.1009
20.0992
20.0987
20.0979
20.0982
20.1002
20.1002
20.1009
20.1009
20.0986
20.0986
20.0984
20.0984
20.1002
20.0983
20.1009
20.0991
20.0987
20.0992
20.0982
20.0979
20.0732
20.1352
20.077
20.1301
20.1145
20.0849
20.1065
20.0893
20.1084
20.0953
20.1194
20.0867
20.0536
20.1438
20.0688
20.1308
20.1014
20.0991
20.0997
20.0996
20.1033
20.0981
20.1011
20.0984
20.0986
20.0986
20.0994
20.0994
20.0975
20.0975
20.0982
20.0982
20.0991
20.1014
20.0996
20.0997
20.0981
20.1033
20.0984
20.1011
20.0953
20.1084
20.0867
20.1194
20.1438
20.0537
20.1307
20.0689
20.0904
20.107
20.099
20.1018
20.0268
20.1649
20.0396
20.1552
20.107
20.0992
20.104
20.099
20.1098
20.0984
20.1064
20.0982
20.0972
20.0972
20.0978
20.0978
20.0964
20.0965
20.0969
20.0969
20.0992
20.107
20.099
20.104
20.0985
20.1097
20.0981
20.1063
20.107
20.0904
20.1018
20.099
20.1648
20.0269
20.1551
20.0397
20.0756
20.114
20.0826
20.111
20.0049
20.1793
20.0153
20.1728
20.1131
20.1005
20.11
20.0997
20.1167
20.0998
20.1131
20.099
20.0964
20.0964
20.0967
20.0967
20.0959
20.096
20.0962
20.0961
20.1005
20.1131
20.0997
20.1101
20.0998
20.1166
20.099
20.1133
20.114
20.0756
20.111
20.0826
20.1793
20.005
20.1728
20.0154
20.0637
20.1179
20.0693
20.1163
19.9873
20.189
19.9956
20.1846
20.1186
20.1024
20.116
20.1014
20.1229
20.1017
20.1199
20.1007
20.0963
20.0963
20.0963
20.0963
20.096
20.096
20.0959
20.0959
20.1024
20.1186
20.1014
20.1159
20.1017
20.1229
20.1007
20.1199
20.1179
20.0637
20.1163
20.0694
20.1889
19.9875
20.1846
19.9958
20.0541
20.1198
20.0586
20.119
19.9732
20.1954
19.9799
20.1925
20.1232
20.1046
20.1211
20.1035
20.1282
20.1038
20.1257
20.1027
20.0966
20.0966
20.0964
20.0964
20.0964
20.0964
20.0962
20.0962
20.1046
20.1232
20.1035
20.121
20.1038
20.1281
20.1027
20.1256
20.1198
20.0541
20.119
20.0587
20.1954
19.9733
20.1925
19.98
20.0463
20.1205
20.05
20.1202
19.9618
20.1997
19.9672
20.1978
20.1269
20.1067
20.1252
20.1056
20.1323
20.1059
20.1304
20.1048
20.0974
20.0974
20.097
20.097
20.0973
20.0972
20.0968
20.0968
20.1066
20.1269
20.1056
20.1252
20.1058
20.1323
20.1048
20.1303
20.1204
20.0464
20.1202
20.0501
20.1996
19.9619
20.1977
19.9673
20.04
20.1204
20.043
20.1205
19.9525
20.2025
19.9569
20.2012
20.1297
20.1085
20.1284
20.1076
20.1356
20.1078
20.134
20.1068
20.0984
20.0984
20.0979
20.0979
20.0982
20.0982
20.0977
20.0977
20.1085
20.1297
20.1076
20.1284
20.1077
20.1355
20.1068
20.134
20.1204
20.04
20.1205
20.043
20.2024
19.9526
20.2012
19.957
20.0347
20.1199
20.0372
20.1203
19.9449
20.2043
19.9485
20.2035
20.1319
20.1102
20.1308
20.1094
20.138
20.1094
20.1369
20.1086
20.0994
20.0994
20.0989
20.0989
20.0993
20.0993
20.0988
20.0988
20.1101
20.1318
20.1094
20.1309
20.1094
20.138
20.1086
20.1369
20.1199
20.0347
20.1201
20.0372
20.2043
19.945
20.2034
19.9486
20.0302
20.1191
20.0324
20.1195
19.9386
20.2054
19.9416
20.2049
20.1335
20.1115
20.1328
20.1109
20.1399
20.1108
20.139
20.1101
20.1004
20.1004
20.0999
20.0999
20.1003
20.1003
20.0998
20.0998
20.1115
20.1335
20.1109
20.1327
20.1107
20.1399
20.1101
20.139
20.1191
20.0303
20.1195
20.0324
20.2054
19.9386
20.2049
19.9417
20.0265
20.1182
20.0283
20.1187
19.9333
20.206
19.9358
20.2058
20.1347
20.1126
20.1341
20.1121
20.1412
20.1118
20.1406
20.1113
20.1013
20.1013
20.1009
20.1009
20.1012
20.1012
20.1008
20.1008
20.1126
20.1346
20.112
20.1341
20.1118
20.1412
20.1113
20.1406
20.1182
20.0266
20.1187
20.0283
20.206
19.9334
20.2057
19.9359
20.0233
20.1173
20.0249
20.1178
19.9289
20.2062
19.931
20.2062
20.1354
20.1134
20.1351
20.113
20.1422
20.1127
20.1418
20.1123
20.1021
20.1021
20.1017
20.1017
20.1019
20.1019
20.1016
20.1016
20.1134
20.1354
20.113
20.1351
20.1126
20.1421
20.1123
20.1417
20.1173
20.0234
20.1178
20.0249
20.2062
19.929
20.2061
19.9311
20.0206
20.1163
20.0219
20.1168
19.9252
20.2062
19.927
20.2062
20.1359
20.1139
20.1357
20.1137
20.1427
20.1132
20.1425
20.113
20.1026
20.1026
20.1024
20.1023
20.1025
20.1025
20.1022
20.1022
20.1139
20.1358
20.1137
20.1357
20.1132
20.1427
20.113
20.1425
20.1163
20.0206
20.1168
20.0219
20.2061
19.9253
20.2062
19.9271
20.0182
20.1153
20.0194
20.1158
19.9221
20.2058
19.9236
20.206
20.136
20.1142
20.136
20.1141
20.143
20.1135
20.1429
20.1134
20.103
20.1029
20.1028
20.1028
20.1028
20.1028
20.1027
20.1027
20.1142
20.136
20.1141
20.136
20.1135
20.1429
20.1134
20.1429
20.1153
20.0183
20.1158
20.0194
20.2058
19.9222
20.206
19.9237
20.0161
20.1143
20.0171
20.1148
19.9195
20.2053
19.9207
20.2056
20.136
20.1143
20.136
20.1143
20.143
20.1136
20.143
20.1136
20.1031
20.1031
20.1031
20.103
20.1029
20.1029
20.1029
20.1029
20.1143
20.136
20.1143
20.136
20.1136
20.1429
20.1136
20.143
20.1143
20.0162
20.1148
20.0172
20.2053
19.9196
20.2056
19.9208
20.0143
20.1133
20.0152
20.1138
19.9173
20.2046
19.9183
20.205
20.1358
20.1142
20.1359
20.1143
20.1427
20.1135
20.1428
20.1136
20.1031
20.103
20.1031
20.1031
20.1028
20.1028
20.1029
20.1029
20.1142
20.1357
20.1143
20.1359
20.1135
20.1427
20.1136
20.1428
20.1133
20.0143
20.1138
20.0152
20.2046
19.9174
20.205
19.9184
20.0127
20.1123
20.0135
20.1128
19.9154
20.2038
19.9163
20.2042
20.1353
20.1139
20.1356
20.1141
20.1422
20.1131
20.1425
20.1133
20.1028
20.1028
20.103
20.1029
20.1026
20.1026
20.1027
20.1027
20.1139
20.1353
20.1141
20.1356
20.1131
20.1422
20.1133
20.1425
20.1123
20.0127
20.1128
20.0135
20.2037
19.9155
20.2042
19.9164
20.0113
20.1113
20.012
20.1118
19.9139
20.2027
19.9146
20.2033
20.1348
20.1134
20.1351
20.1137
20.1416
20.1126
20.1419
20.1129
20.1025
20.1025
20.1027
20.1027
20.1021
20.1021
20.1023
20.1023
20.1134
20.1348
20.1137
20.1351
20.1126
20.1415
20.1129
20.1419
20.1112
20.0113
20.1118
20.012
20.2027
19.9139
20.2032
19.9147
20.01
20.1103
20.0106
20.1108
19.9126
20.2016
19.9132
20.2022
20.1342
20.1128
20.1345
20.1131
20.1407
20.1119
20.1411
20.1123
20.1019
20.1019
20.1022
20.1022
20.1015
20.1014
20.1018
20.1018
20.1128
20.1341
20.1131
20.1345
20.1119
20.1407
20.1122
20.1411
20.1102
20.01
20.1108
20.0106
20.2015
19.9127
20.2021
19.9133
20.0089
20.1093
20.0094
20.1098
19.9116
20.2003
19.9121
20.201
20.1334
20.112
20.1339
20.1124
20.1397
20.111
20.1402
20.1115
20.1013
20.1013
20.1016
20.1016
20.1007
20.1007
20.1011
20.1011
20.112
20.1333
20.1124
20.1337
20.111
20.1396
20.1114
20.1402
20.1093
20.0089
20.1097
20.0094
20.2002
19.9116
20.2009
19.9121
20.008
20.1083
20.0084
20.1088
19.9108
20.1989
19.9112
20.1996
20.1322
20.1112
20.1328
20.1116
20.1384
20.11
20.1391
20.1105
20.1005
20.1005
20.1009
20.1009
20.0997
20.0997
20.1002
20.1002
20.1112
20.1322
20.1116
20.1328
20.11
20.1384
20.1105
20.139
20.1083
20.008
20.1088
20.0084
20.1989
19.9108
20.1996
19.9112
20.0072
20.1074
20.0076
20.1079
19.9102
20.1975
19.9105
20.1982
20.131
20.1102
20.1316
20.1107
20.1371
20.1089
20.1378
20.1094
20.0997
20.0997
20.1002
20.1002
20.0987
20.0987
20.0992
20.0992
20.1102
20.131
20.1107
20.1316
20.1089
20.137
20.1094
20.1377
20.1074
20.0072
20.1079
20.0076
20.1974
19.9103
20.1982
19.9105
20.0066
20.1066
20.0068
20.107
19.9098
20.196
19.91
20.1967
20.1297
20.1093
20.1303
20.1098
20.1356
20.1077
20.1363
20.1083
20.0989
20.0989
20.0993
20.0993
20.0976
20.0976
20.0982
20.0982
20.1093
20.1297
20.1098
20.1303
20.1077
20.1356
20.1083
20.1363
20.1066
20.0066
20.107
20.0069
20.1959
19.9099
20.1967
19.9101
20.0061
20.1058
20.0063
20.1062
19.9098
20.1944
19.9098
20.1952
20.1284
20.1083
20.1291
20.1088
20.134
20.1064
20.1348
20.107
20.098
20.098
20.0985
20.0985
20.0965
20.0965
20.0971
20.0971
20.1083
20.1284
20.1088
20.1291
20.1064
20.134
20.107
20.1348
20.1058
20.0062
20.1062
20.0064
20.1943
19.9098
20.1951
19.9098
20.0059
20.1051
20.006
20.1054
19.91
20.1927
19.9098
20.1935
20.1272
20.1073
20.1278
20.1078
20.1324
20.1051
20.1332
20.1057
20.0972
20.0972
20.0976
20.0976
20.0953
20.0953
20.0959
20.0959
20.1073
20.1272
20.1078
20.1278
20.1051
20.1324
20.1057
20.1332
20.1051
20.006
20.1054
20.006
20.1927
19.91
20.1935
19.9099
20.006
20.1045
20.0059
20.1048
19.9105
20.191
19.9102
20.1919
20.126
20.1064
20.1266
20.1068
20.1308
20.1038
20.1316
20.1045
20.0964
20.0964
20.0968
20.0968
20.0942
20.0942
20.0948
20.0948
20.1064
20.126
20.1068
20.1266
20.1038
20.1308
20.1044
20.1316
20.1045
20.006
20.1048
20.006
20.191
19.9105
20.1918
19.9103
20.0063
20.104
20.0061
20.1042
19.9113
20.1893
19.9108
20.1902
20.1249
20.1055
20.1254
20.1059
20.1292
20.1026
20.13
20.1032
20.0958
20.0958
20.0961
20.0961
20.0932
20.0932
20.0937
20.0937
20.1055
20.1249
20.1059
20.1254
20.1026
20.1292
20.1032
20.13
20.104
20.0063
20.1042
20.0061
20.1893
19.9114
20.1902
19.9109
20.0069
20.1036
20.0065
20.1038
19.9125
20.1877
19.9119
20.1885
20.1238
20.1048
20.1243
20.1051
20.1276
20.1015
20.1284
20.102
20.0953
20.0953
20.0955
20.0955
20.0923
20.0923
20.0927
20.0927
20.1048
20.1238
20.1051
20.1243
20.1014
20.1276
20.102
20.1284
20.1036
20.0069
20.1038
20.0066
20.1877
19.9126
20.1885
19.9119
20.0078
20.1034
20.0073
20.1035
19.9142
20.186
19.9133
20.1869
20.1229
20.1042
20.1233
20.1045
20.1261
20.1005
20.1269
20.1009
20.095
20.095
20.0951
20.0951
20.0915
20.0915
20.0919
20.0919
20.1042
20.1229
20.1045
20.1233
20.1005
20.1261
20.1009
20.1269
20.1034
20.0078
20.1035
20.0073
20.186
19.9142
20.1868
19.9134
20.0091
20.1033
20.0084
20.1034
19.9162
20.1845
19.9151
20.1852
20.1221
20.1039
20.1225
20.104
20.1247
20.0996
20.1254
20.1
20.0949
20.0949
20.0949
20.0949
20.091
20.091
20.0912
20.0912
20.1039
20.1221
20.104
20.1225
20.0996
20.1247
20.1
20.1254
20.1033
20.0091
20.1034
20.0084
20.1844
19.9163
20.1852
19.9152
20.0108
20.1034
20.0099
20.1033
19.9189
20.1829
19.9175
20.1837
20.1214
20.1037
20.1217
20.1038
20.1235
20.0991
20.1241
20.0993
20.0951
20.0951
20.0949
20.0949
20.0908
20.0908
20.0909
20.0909
20.1037
20.1214
20.1037
20.1217
20.099
20.1234
20.0993
20.1241
20.1034
20.0108
20.1034
20.0099
20.1829
19.9189
20.1837
19.9176
20.0129
20.1036
20.0118
20.1035
19.922
20.1814
19.9204
20.1822
20.1209
20.1038
20.1211
20.1037
20.1223
20.0987
20.1229
20.0989
20.0955
20.0955
20.0952
20.0952
20.0908
20.0908
20.0908
20.0908
20.1038
20.1208
20.1037
20.1211
20.0987
20.1223
20.0988
20.1229
20.1036
20.0129
20.1035
20.0118
20.1814
19.9221
20.1821
19.9204
20.0154
20.1039
20.0141
20.1038
19.9258
20.1799
19.9238
20.1807
20.1205
20.1041
20.1207
20.1039
20.1214
20.0987
20.1218
20.0987
20.0963
20.0963
20.0959
20.0959
20.0912
20.0912
20.091
20.091
20.1041
20.1205
20.1039
20.1206
20.0987
20.1214
20.0987
20.1218
20.1039
20.0155
20.1038
20.0141
20.1799
19.9259
20.1807
19.9239
20.0185
20.1043
20.0169
20.1041
19.9303
20.1784
19.928
20.1792
20.1203
20.1047
20.1204
20.1044
20.1207
20.099
20.121
20.0988
20.0973
20.0973
20.0968
20.0968
20.092
20.092
20.0916
20.0916
20.1047
20.1203
20.1043
20.1204
20.099
20.1207
20.0988
20.121
20.1043
20.0185
20.1041
20.0169
20.1784
19.9304
20.1792
19.928
20.0221
20.1046
20.0202
20.1045
19.9355
20.1768
19.9328
20.1776
20.1203
20.1056
20.1203
20.1051
20.1202
20.0997
20.1204
20.0993
20.0987
20.0987
20.098
20.098
20.0931
20.0931
20.0925
20.0925
20.1056
20.1203
20.1051
20.1203
20.0997
20.1202
20.0993
20.1204
20.1047
20.0221
20.1045
20.0202
20.1768
19.9356
20.1776
19.9329
20.0262
20.105
20.0241
20.1048
19.9417
20.1749
19.9385
20.1759
20.1204
20.1067
20.1203
20.1061
20.1199
20.1007
20.12
20.1001
20.1003
20.1003
20.0995
20.0995
20.0946
20.0946
20.0938
20.0938
20.1067
20.1204
20.1061
20.1203
20.1007
20.1199
20.1001
20.12
20.105
20.0262
20.1048
20.0241
20.1749
19.9418
20.1759
19.9386
20.0307
20.1054
20.0284
20.1052
19.9491
20.1726
19.9452
20.1738
20.1208
20.1081
20.1206
20.1074
20.1199
20.1021
20.1199
20.1013
20.1022
20.1022
20.1012
20.1012
20.0964
20.0964
20.0954
20.0954
20.1081
20.1207
20.1074
20.1206
20.1021
20.1199
20.1013
20.1199
20.1054
20.0307
20.1052
20.0284
20.1726
19.9492
20.1738
19.9453
20.0344
20.1069
20.0329
20.1058
19.9581
20.1691
19.9534
20.171
20.1212
20.1099
20.121
20.109
20.1201
20.1039
20.12
20.1029
20.1044
20.1044
20.1033
20.1033
20.0986
20.0986
20.0975
20.0975
20.1099
20.1212
20.1089
20.121
20.1039
20.1201
20.1029
20.12
20.1069
20.0344
20.1058
20.0329
20.1691
19.9582
20.171
19.9534
20.0374
20.1084
20.0343
20.1092
19.9687
20.164
19.9632
20.1668
20.1226
20.112
20.122
20.1109
20.121
20.1061
20.1205
20.1049
20.1068
20.1068
20.1056
20.1056
20.1011
20.1011
20.0998
20.0998
20.112
20.1226
20.1109
20.122
20.1061
20.121
20.1049
20.1205
20.1084
20.0374
20.1092
20.0343
20.164
19.9688
20.1668
19.9632
20.183
20.0403
20.1568
20.0563
20.1658
20.049
20.1453
20.0623
20.0838
20.0986
20.0902
20.0996
20.0904
20.0993
20.0939
20.0994
20.1002
20.1002
20.1003
20.1003
20.0998
20.0998
20.0996
20.0996
20.0986
20.0839
20.0996
20.0902
20.0993
20.0904
20.0994
20.094
20.0404
20.1828
20.0564
20.1566
20.049
20.1657
20.0624
20.1452
20.1577
20.0678
20.166
20.0588
20.1435
20.071
20.1517
20.0635
20.0848
20.0957
20.0844
20.0973
20.0915
20.0978
20.0911
20.0987
20.0987
20.0987
20.0996
20.0996
20.0987
20.0987
20.0994
20.0994
20.0957
20.0848
20.0973
20.0844
20.0978
20.0915
20.0987
20.0911
20.0678
20.1576
20.0588
20.1659
20.071
20.1434
20.0635
20.1516
20.1493
20.0742
20.1529
20.0721
20.1324
20.078
20.1376
20.0754
20.0875
20.0951
20.086
20.0951
20.0951
20.0976
20.093
20.0975
20.097
20.097
20.0978
20.0978
20.0973
20.0973
20.0979
20.0979
20.0951
20.0875
20.0951
20.086
20.0976
20.0951
20.0975
20.093
20.0742
20.1492
20.0721
20.1529
20.078
20.1324
20.0754
20.1375
20.144
20.0753
20.1464
20.0751
20.1239
20.0805
20.1279
20.0796
20.0905
20.0958
20.0891
20.0954
20.0995
20.0986
20.0974
20.098
20.096
20.096
20.0964
20.0964
20.0965
20.0965
20.0968
20.0968
20.0958
20.0905
20.0954
20.0891
20.0986
20.0995
20.098
20.0974
20.0753
20.1439
20.0751
20.1463
20.0805
20.1239
20.0796
20.1278
20.14
20.0745
20.1419
20.075
20.1172
20.0808
20.1203
20.0808
20.0927
20.0971
20.0917
20.0965
20.1032
20.1001
20.1015
20.0993
20.0959
20.0959
20.0958
20.0958
20.0964
20.0964
20.0963
20.0963
20.0971
20.0927
20.0965
20.0917
20.1001
20.1031
20.0993
20.1015
20.0745
20.14
20.075
20.1418
20.0809
20.1171
20.0808
20.1203
20.1369
20.073
20.1384
20.0738
20.1118
20.0802
20.1143
20.0806
20.0943
20.0985
20.0936
20.0978
20.1059
20.1019
20.1046
20.101
20.0964
20.0964
20.0961
20.0961
20.0969
20.0969
20.0966
20.0966
20.0985
20.0943
20.0978
20.0936
20.1019
20.1059
20.101
20.1046
20.073
20.1368
20.0738
20.1383
20.0802
20.1117
20.0806
20.1143
20.1343
20.0711
20.1355
20.0721
20.1073
20.0789
20.1094
20.0796
20.0953
20.0999
20.0948
20.0992
20.1079
20.1037
20.1069
20.1028
20.0973
20.0973
20.0968
20.0968
20.0978
20.0978
20.0973
20.0973
20.0999
20.0953
20.0992
20.0948
20.1037
20.1078
20.1028
20.1069
20.0711
20.1343
20.0721
20.1355
20.0789
20.1073
20.0796
20.1094
20.1321
20.0692
20.1332
20.0702
20.1037
20.0774
20.1054
20.0782
20.0958
20.1013
20.0956
20.1006
20.1093
20.1053
20.1086
20.1045
20.0983
20.0983
20.0978
20.0978
20.0988
20.0988
20.0983
20.0983
20.1013
20.0958
20.1006
20.0956
20.1053
20.1092
20.1045
20.1086
20.0692
20.1321
20.0702
20.1331
20.0774
20.1037
20.0782
20.1054
20.1302
20.0674
20.1311
20.0683
20.1006
20.0758
20.1021
20.0766
20.096
20.1024
20.096
20.1019
20.1102
20.1068
20.1098
20.1061
20.0994
20.0994
20.0988
20.0988
20.0999
20.0999
20.0994
20.0994
20.1024
20.096
20.1019
20.096
20.1067
20.1102
20.1061
20.1098
20.0674
20.1302
20.0683
20.1311
20.0758
20.1006
20.0766
20.1021
20.1285
20.0657
20.1294
20.0665
20.098
20.0742
20.0992
20.075
20.096
20.1034
20.096
20.1029
20.1108
20.1079
20.1105
20.1074
20.1004
20.1004
20.0999
20.0999
20.101
20.1009
20.1004
20.1004
20.1034
20.096
20.1029
20.096
20.1079
20.1108
20.1074
20.1105
20.0657
20.1285
20.0665
20.1293
20.0742
20.098
20.075
20.0992
20.127
20.0641
20.1278
20.0649
20.0957
20.0726
20.0968
20.0734
20.0957
20.1041
20.0959
20.1038
20.1111
20.1089
20.1109
20.1084
20.1013
20.1013
20.1009
20.1009
20.1019
20.1019
20.1014
20.1014
20.1041
20.0957
20.1038
20.0959
20.1089
20.1111
20.1084
20.1109
20.0641
20.127
20.0649
20.1277
20.0727
20.0957
20.0734
20.0968
20.1257
20.0626
20.1263
20.0633
20.0937
20.0712
20.0947
20.0719
20.0954
20.1047
20.0956
20.1044
20.1111
20.1096
20.1111
20.1093
20.102
20.102
20.1017
20.1017
20.1026
20.1026
20.1023
20.1023
20.1047
20.0954
20.1044
20.0956
20.1096
20.1111
20.1093
20.1111
20.0626
20.1256
20.0634
20.1263
20.0712
20.0937
20.0719
20.0947
20.1244
20.0612
20.125
20.0619
20.0919
20.0698
20.0928
20.0704
20.095
20.1051
20.0952
20.1049
20.111
20.1101
20.1111
20.1099
20.1026
20.1026
20.1023
20.1023
20.1032
20.1032
20.1029
20.1029
20.1051
20.095
20.1049
20.0952
20.1101
20.111
20.1099
20.1111
20.0612
20.1244
20.0619
20.125
20.0698
20.0919
20.0705
20.0928
20.1233
20.0599
20.1238
20.0605
20.0904
20.0684
20.0911
20.0691
20.0945
20.1053
20.0947
20.1052
20.1108
20.1104
20.1109
20.1103
20.103
20.103
20.1028
20.1028
20.1036
20.1036
20.1034
20.1034
20.1053
20.0945
20.1052
20.0947
20.1104
20.1107
20.1103
20.1109
20.0599
20.1232
20.0606
20.1238
20.0685
20.0904
20.0691
20.0911
20.1222
20.0587
20.1227
20.0593
20.0889
20.0672
20.0896
20.0678
20.0939
20.1053
20.0942
20.1053
20.1104
20.1105
20.1106
20.1105
20.1032
20.1032
20.1031
20.1031
20.1038
20.1038
20.1037
20.1037
20.1053
20.0939
20.1053
20.0942
20.1105
20.1103
20.1105
20.1106
20.0587
20.1221
20.0593
20.1227
20.0672
20.0889
20.0678
20.0896
20.1211
20.0576
20.1217
20.0581
20.0876
20.066
20.0883
20.0666
20.0933
20.1052
20.0936
20.1053
20.1098
20.1105
20.1101
20.1105
20.1033
20.1033
20.1032
20.1032
20.1038
20.1038
20.1038
20.1038
20.1052
20.0933
20.1053
20.0936
20.1105
20.1098
20.1105
20.1101
20.0576
20.1211
20.0581
20.1216
20.0661
20.0876
20.0666
20.0883
20.1202
20.0566
20.1207
20.0571
20.0864
20.065
20.087
20.0655
20.0927
20.105
20.093
20.1051
20.1092
20.1103
20.1095
20.1104
20.1032
20.1032
20.1032
20.1032
20.1037
20.1037
20.1038
20.1038
20.105
20.0927
20.1051
20.093
20.1103
20.1092
20.1104
20.1095
20.0566
20.1201
20.0571
20.1206
20.065
20.0864
20.0655
20.087
20.1193
20.0556
20.1197
20.0561
20.0853
20.0639
20.0859
20.0644
20.0921
20.1048
20.0924
20.1049
20.1085
20.11
20.1088
20.1101
20.1029
20.1029
20.1031
20.1031
20.1034
20.1033
20.1035
20.1035
20.1048
20.0921
20.1049
20.0924
20.1099
20.1085
20.1101
20.1088
20.0556
20.1192
20.0561
20.1197
20.064
20.0853
20.0645
20.0859
20.1184
20.0548
20.1188
20.0552
20.0843
20.063
20.0848
20.0635
20.0915
20.1044
20.0918
20.1046
20.1076
20.1095
20.108
20.1097
20.1026
20.1026
20.1028
20.1028
20.1029
20.1029
20.1032
20.1031
20.1044
20.0915
20.1046
20.0918
20.1095
20.1076
20.1097
20.108
20.0548
20.1184
20.0552
20.1188
20.063
20.0843
20.0635
20.0848
20.1176
20.054
20.118
20.0544
20.0834
20.0622
20.0838
20.0625
20.0909
20.1039
20.0911
20.1041
20.1067
20.1089
20.107
20.1092
20.1022
20.1022
20.1024
20.1024
20.1024
20.1024
20.1027
20.1027
20.1039
20.0909
20.1041
20.0912
20.1089
20.1068
20.1093
20.1073
20.0541
20.1176
20.0544
20.118
20.0622
20.0834
20.0626
20.0839
20.1169
20.0534
20.1172
20.0537
20.0826
20.0614
20.083
20.0618
20.0903
20.1034
20.0906
20.1036
20.1062
20.1083
20.1064
20.1086
20.1018
20.1018
20.102
20.102
20.1018
20.1018
20.1021
20.1021
20.1034
20.0904
20.1036
20.0906
20.1083
20.1062
20.1086
20.1064
20.0534
20.1169
20.0537
20.1172
20.0614
20.0826
20.0618
20.083
20.1163
20.0528
20.1166
20.0531
20.0819
20.0607
20.0822
20.061
20.0899
20.1028
20.0901
20.1031
20.1058
20.1076
20.106
20.1079
20.1013
20.1013
20.1016
20.1016
20.1012
20.1012
20.1015
20.1015
20.1028
20.0899
20.1031
20.0901
20.1076
20.1058
20.1079
20.106
20.0529
20.1162
20.0531
20.1165
20.0607
20.0818
20.0611
20.0822
20.1158
20.0524
20.116
20.0526
20.0813
20.0602
20.0815
20.0604
20.0895
20.1024
20.0897
20.1026
20.1054
20.1069
20.1056
20.1072
20.1009
20.1009
20.1011
20.1011
20.1005
20.1005
20.1009
20.1009
20.1024
20.0895
20.1026
20.0897
20.1069
20.1054
20.1072
20.1056
20.0524
20.1157
20.0526
20.116
20.0602
20.0812
20.0604
20.0815
20.1154
20.0522
20.1156
20.0523
20.0808
20.0598
20.081
20.0599
20.0891
20.1019
20.0893
20.1021
20.1049
20.1062
20.1051
20.1065
20.1005
20.1005
20.1007
20.1007
20.0999
20.0999
20.1002
20.1002
20.1019
20.0891
20.1021
20.0893
20.1062
20.1049
20.1065
20.1051
20.0522
20.1154
20.0523
20.1155
20.0598
20.0808
20.06
20.081
20.1152
20.0521
20.1153
20.0521
20.0805
20.0595
20.0807
20.0596
20.0889
20.1016
20.089
20.1017
20.1045
20.1056
20.1047
20.1059
20.1001
20.1001
20.1003
20.1003
20.0994
20.0994
20.0997
20.0997
20.1016
20.0889
20.1017
20.089
20.1056
20.1045
20.1059
20.1047
20.0521
20.1151
20.0521
20.1152
20.0595
20.0805
20.0596
20.0806
20.1151
20.0522
20.1151
20.0521
20.0804
20.0594
20.0805
20.0594
20.0889
20.1013
20.0889
20.1014
20.1041
20.105
20.1043
20.1053
20.0999
20.0999
20.1
20.1
20.0989
20.0989
20.0992
20.0992
20.1013
20.0889
20.1014
20.0889
20.105
20.1041
20.1053
20.1043
20.0522
20.115
20.0522
20.115
20.0594
20.0804
20.0594
20.0804
20.1152
20.0524
20.1151
20.0523
20.0806
20.0595
20.0805
20.0594
20.0889
20.1012
20.0889
20.1012
20.1038
20.1046
20.1039
20.1048
20.0998
20.0998
20.0999
20.0999
20.0986
20.0986
20.0988
20.0988
20.1012
20.0889
20.1012
20.0889
20.1046
20.1038
20.1048
20.1039
20.0525
20.1151
20.0523
20.115
20.0595
20.0805
20.0594
20.0805
20.1154
20.0531
20.1153
20.0527
20.0809
20.0597
20.0807
20.0596
20.0891
20.1012
20.089
20.1012
20.1036
20.1043
20.1037
20.1044
20.0999
20.0999
20.0999
20.0999
20.0985
20.0985
20.0985
20.0985
20.1012
20.0891
20.1012
20.089
20.1043
20.1036
20.1044
20.1037
20.0531
20.1154
20.0527
20.1152
20.0597
20.0809
20.0596
20.0807
20.1159
20.0541
20.1156
20.0536
20.0815
20.0601
20.0811
20.0599
20.0895
20.1014
20.0893
20.1013
20.1035
20.1042
20.1036
20.1042
20.1002
20.1002
20.1
20.1
20.0985
20.0985
20.0985
20.0984
20.1014
20.0895
20.1013
20.0893
20.1042
20.1035
20.1042
20.1036
20.0541
20.1158
20.0536
20.1156
20.0601
20.0815
20.0599
20.0811
20.1165
20.0554
20.1161
20.0546
20.0823
20.0606
20.0819
20.0603
20.09
20.1018
20.0897
20.1016
20.1036
20.1042
20.1035
20.1042
20.1007
20.1007
20.1004
20.1004
20.0987
20.0987
20.0986
20.0986
20.1018
20.09
20.1016
20.0897
20.1042
20.1036
20.1042
20.1035
20.0554
20.1164
20.0547
20.1161
20.0606
20.0823
20.0603
20.0818
20.1173
20.0566
20.1169
20.0562
20.0834
20.0614
20.0828
20.0608
20.0906
20.1023
20.0903
20.102
20.1038
20.1045
20.1037
20.1043
20.1013
20.1013
20.101
20.101
20.0992
20.0992
20.099
20.099
20.1023
20.0906
20.102
20.0903
20.1045
20.1038
20.1043
20.1037
20.0566
20.1173
20.0562
20.1168
20.0614
20.0834
20.0608
20.0828
20.1183
20.0574
20.1178
20.0569
20.0848
20.0627
20.0841
20.062
20.0914
20.1031
20.091
20.1027
20.1041
20.1049
20.1039
20.1047
20.1022
20.1022
20.1018
20.1018
20.1
20.1
20.0996
20.0996
20.1031
20.0914
20.1027
20.091
20.1049
20.1041
20.1047
20.1039
20.0574
20.1183
20.0569
20.1177
20.0627
20.0848
20.0621
20.0841
20.1194
20.0585
20.1189
20.0579
20.0864
20.0641
20.0856
20.0634
20.0924
20.104
20.0919
20.1035
20.1046
20.1056
20.1043
20.1052
20.1034
20.1034
20.1028
20.1028
20.101
20.101
20.1004
20.1004
20.104
20.0924
20.1035
20.0919
20.1056
20.1046
20.1052
20.1043
20.0585
20.1194
20.0579
20.1188
20.0641
20.0864
20.0634
20.0856
20.1206
20.0599
20.12
20.0592
20.0883
20.0655
20.0873
20.0648
20.0935
20.1051
20.0929
20.1045
20.1052
20.1065
20.1049
20.106
20.1047
20.1047
20.104
20.104
20.1022
20.1022
20.1015
20.1015
20.1051
20.0935
20.1045
20.0929
20.1065
20.1052
20.106
20.1049
20.0599
20.1205
20.0592
20.12
20.0655
20.0883
20.0648
20.0873
20.1216
20.0615
20.1211
20.0607
20.0903
20.0671
20.0893
20.0663
20.0947
20.1064
20.0941
20.1057
20.106
20.1076
20.1056
20.107
20.1062
20.1062
20.1054
20.1054
20.1036
20.1036
20.1029
20.1029
20.1064
20.0947
20.1057
20.0941
20.1076
20.106
20.107
20.1056
20.0615
20.1216
20.0607
20.1211
20.0671
20.0903
20.0663
20.0893
20.1222
20.0634
20.122
20.0624
20.0924
20.0689
20.0914
20.0679
20.0961
20.1077
20.0954
20.107
20.1068
20.1088
20.1064
20.1082
20.1078
20.1078
20.107
20.107
20.1053
20.1053
20.1044
20.1044
20.1077
20.0961
20.107
20.0954
20.1088
20.1068
20.1082
20.1064
20.0635
20.1222
20.0624
20.122
20.0689
20.0924
20.068
20.0914
20.1219
20.0661
20.1222
20.0647
20.0941
20.0709
20.0933
20.0699
20.0976
20.1093
20.0968
20.1085
20.1078
20.1103
20.1073
20.1095
20.1096
20.1096
20.1087
20.1087
20.1071
20.1071
20.1062
20.1062
20.1093
20.0976
20.1085
20.0968
20.1103
20.1078
20.1095
20.1073
20.0662
20.1218
20.0647
20.1222
20.071
20.094
20.0699
20.0933
20.117
20.0726
20.1206
20.0683
20.0929
20.0755
20.0943
20.0725
20.0993
20.111
20.0983
20.1101
20.109
20.112
20.1083
20.1111
20.1115
20.1115
20.1105
20.1105
20.1091
20.1091
20.1081
20.1081
20.111
20.0993
20.1101
20.0983
20.112
20.109
20.1111
20.1083
20.0726
20.117
20.0684
20.1206
20.0755
20.0929
20.0725
20.0943
20.1305
20.0609
20.1122
20.078
20.1028
20.0685
20.0901
20.0797
20.1005
20.1134
20.1005
20.112
20.1105
20.1142
20.11
20.1131
20.1134
20.1134
20.1125
20.1125
20.1112
20.1112
20.1102
20.1102
20.1134
20.1005
20.112
20.1005
20.1142
20.1105
20.1131
20.11
20.0609
20.1304
20.078
20.1122
20.0686
20.1028
20.0797
20.0901
20.2037
20.0336
20.1718
20.0499
20.1947
20.0359
20.1651
20.0524
20.0729
20.095
20.083
20.0981
20.0777
20.097
20.0863
20.099
20.1002
20.1002
20.1006
20.1006
20.1002
20.1002
20.1005
20.1005
20.095
20.073
20.0982
20.0831
20.097
20.0778
20.099
20.0863
20.0337
20.2035
20.0499
20.1716
20.0359
20.1945
20.0524
20.1649
20.1666
20.075
20.1784
20.0615
20.1638
20.0705
20.1737
20.0592
20.076
20.0899
20.075
20.0922
20.0794
20.0927
20.079
20.0947
20.0973
20.0973
20.0991
20.0991
20.0982
20.0982
20.0995
20.0995
20.09
20.076
20.0923
20.0751
20.0927
20.0794
20.0947
20.079
20.075
20.1665
20.0615
20.1783
20.0705
20.1637
20.0592
20.1735
20.1571
20.0843
20.1608
20.0813
20.1553
20.0783
20.1588
20.0757
20.0794
20.0886
20.0777
20.0889
20.0823
20.0915
20.0808
20.0918
20.0944
20.0944
20.0957
20.0957
20.096
20.096
20.0971
20.0971
20.0886
20.0794
20.089
20.0777
20.0916
20.0823
20.0918
20.0808
20.0843
20.1571
20.0812
20.1607
20.0783
20.1553
20.0757
20.1587
20.1527
20.0864
20.1546
20.0858
20.1509
20.0797
20.1529
20.0794
20.0818
20.0887
20.0807
20.0885
20.0847
20.0919
20.0836
20.0916
20.0929
20.0929
20.0935
20.0935
20.0948
20.0948
20.0953
20.0953
20.0887
20.0818
20.0885
20.0807
20.0919
20.0847
20.0916
20.0836
20.0864
20.1527
20.0858
20.1545
20.0797
20.1509
20.0794
20.1528
20.1501
20.0862
20.1513
20.0865
20.148
20.0791
20.1493
20.0795
20.0831
20.0893
20.0826
20.0889
20.0862
20.0928
20.0855
20.0923
20.0925
20.0925
20.0926
20.0926
20.0945
20.0945
20.0946
20.0946
20.0893
20.0831
20.0889
20.0826
20.0928
20.0862
20.0923
20.0855
20.0862
20.15
20.0864
20.1512
20.0791
20.1479
20.0795
20.1493
20.1481
20.0853
20.149
20.0858
20.1457
20.0778
20.1468
20.0785
20.0837
20.0899
20.0835
20.0896
20.087
20.0939
20.0867
20.0934
20.0928
20.0928
20.0926
20.0926
20.0949
20.0949
20.0946
20.0946
20.0899
20.0837
20.0896
20.0835
20.0939
20.087
20.0934
20.0867
20.0853
20.148
20.0858
20.149
20.0778
20.1457
20.0785
20.1468
20.1465
20.0841
20.1473
20.0847
20.1439
20.0762
20.1448
20.077
20.0839
20.0906
20.0838
20.0903
20.0874
20.0949
20.0873
20.0944
20.0935
20.0935
20.0931
20.0931
20.0957
20.0957
20.0953
20.0953
20.0906
20.0839
20.0903
20.0838
20.0949
20.0874
20.0944
20.0873
20.0841
20.1464
20.0847
20.1472
20.0762
20.1438
20.077
20.1447
20.1451
20.0828
20.1457
20.0835
20.1423
20.0746
20.1431
20.0754
20.0838
20.0912
20.0839
20.0909
20.0875
20.0959
20.0875
20.0954
20.0943
20.0943
20.0939
20.0939
20.0967
20.0967
20.0962
20.0962
20.0912
20.0838
20.0909
20.0839
20.0959
20.0875
20.0954
20.0875
20.0828
20.145
20.0835
20.1457
20.0746
20.1422
20.0754
20.143
20.1438
20.0815
20.1444
20.0822
20.1409
20.0729
20.1416
20.0737
20.0835
20.0918
20.0837
20.0915
20.0874
20.0967
20.0875
20.0963
20.0952
20.0952
20.0947
20.0947
20.0977
20.0977
20.0972
20.0972
20.0918
20.0835
20.0915
20.0837
20.0967
20.0874
20.0963
20.0875
20.0815
20.1438
20.0821
20.1444
20.0729
20.1408
20.0737
20.1415
20.1427
20.0802
20.1432
20.0809
20.1396
20.0714
20.1402
20.0722
20.0832
20.0922
20.0834
20.092
20.0871
20.0973
20.0872
20.097
20.096
20.096
20.0956
20.0956
20.0986
20.0986
20.0982
20.0982
20.0922
20.0832
20.092
20.0834
20.0973
20.0871
20.097
20.0873
20.0802
20.1426
20.0809
20.1432
20.0714
20.1395
20.0722
20.1402
20.1416
20.079
20.1421
20.0796
20.1384
20.07
20.139
20.0707
20.0827
20.0925
20.083
20.0923
20.0867
20.0978
20.0869
20.0976
20.0967
20.0967
20.0964
20.0964
20.0994
20.0994
20.099
20.099
20.0925
20.0828
20.0923
20.083
20.0978
20.0867
20.0976
20.0869
20.079
20.1416
20.0796
20.1421
20.07
20.1383
20.0707
20.1389
20.1406
20.0778
20.1411
20.0784
20.1373
20.0686
20.1378
20.0693
20.0823
20.0927
20.0825
20.0926
20.0863
20.0981
20.0865
20.098
20.0973
20.0973
20.097
20.097
20.1001
20.1001
20.0998
20.0998
20.0927
20.0823
20.0926
20.0825
20.0981
20.0863
20.098
20.0865
20.0778
20.1406
20.0784
20.1411
20.0686
20.1372
20.0693
20.1378
20.1397
20.0767
20.1401
20.0773
20.1363
20.0673
20.1368
20.068
20.0818
20.0927
20.082
20.0927
20.0858
20.0983
20.086
20.0982
20.0977
20.0977
20.0975
20.0975
20.1006
20.1006
20.1004
20.1004
20.0927
20.0818
20.0927
20.082
20.0983
20.0858
20.0982
20.086
20.0767
20.1396
20.0773
20.1401
20.0673
20.1362
20.068
20.1367
20.1388
20.0757
20.1392
20.0762
20.1353
20.0661
20.1358
20.0667
20.0812
20.0927
20.0815
20.0927
20.0852
20.0984
20.0855
20.0984
20.098
20.098
20.0979
20.0979
20.101
20.101
20.1008
20.1008
20.0927
20.0812
20.0927
20.0815
20.0984
20.0852
20.0984
20.0855
20.0757
20.1388
20.0762
20.1392
20.0662
20.1352
20.0667
20.1357
20.138
20.0747
20.1384
20.0752
20.1344
20.065
20.1348
20.0656
20.0807
20.0926
20.0809
20.0927
20.0846
20.0983
20.0849
20.0984
20.0982
20.0982
20.0981
20.0981
20.1012
20.1012
20.1011
20.1011
20.0926
20.0807
20.0927
20.081
20.0983
20.0847
20.0984
20.0849
20.0747
20.1379
20.0752
20.1383
20.065
20.1343
20.0656