/*--------------------------------*- C++ -*----------------------------------*\
  =========                 |
  \\      /  F ield         | OpenFOAM: The Open Source CFD Toolbox
   \\    /   O peration     | Website:  https://openfoam.org
    \\  /    A nd           | Version:  9
     \\/     M anipulation  |
\*---------------------------------------------------------------------------*/
FoamFile
{
    format      ascii;
    class       surfaceScalarField;
    location    "4.85";
    object      phi;
}
// * * * * * * * * * * * * * * * * * * * * * * * * * * * * * * * * * * * * * //

dimensions      [0 3 -1 0 0 0 0];

internalField   nonuniform List<scalar> 
104044
(
1.27846e-06
-7.16595e-05
-4.58964e-06
6.85653e-05
6.40539e-06
-4.54319e-05
3.11048e-06
-5.15e-07
4.82079e-05
-4.093e-06
1.10552e-06
-8.76608e-06
8.56584e-06
5.00494e-06
-4.58341e-07
-4.95096e-06
-6.28393e-07
-9.05082e-05
8.6547e-05
-2.91968e-05
3.3268e-07
3.13462e-05
-3.65465e-07
1.81262e-07
-4.05755e-08
-4.93827e-05
-2.5757e-06
4.92081e-05
2.27592e-06
-5.14605e-05
-1.96087e-06
3.64285e-10
5.11462e-05
2.23423e-06
-3.78896e-08
-2.4428e-06
1.68645e-06
-2.28604e-06
-4.71982e-10
2.03182e-06
1.14954e-08
-4.46817e-05
4.24271e-05
-5.18776e-05
9.44801e-10
4.99273e-05
-6.61953e-09
-2.3727e-09
3.56282e-12
-5.2463e-05
-1.72452e-06
5.21674e-05
2.02045e-06
-5.24634e-05
-1.72455e-06
-3.61203e-10
5.21679e-05
2.02047e-06
8.54253e-12
-2.10638e-06
1.91812e-06
-2.1062e-06
4.79402e-10
1.91803e-06
-3.35532e-13
-5.42098e-05
5.24862e-05
-5.42114e-05
-9.4343e-10
5.24878e-05
-4.76773e-12
2.35662e-09
4.054e-08
-5.14616e-05
-1.96106e-06
5.11474e-05
2.23437e-06
-4.93833e-05
-2.57659e-06
5.14513e-07
4.92085e-05
2.27742e-06
3.78274e-08
-2.28567e-06
2.0317e-06
-2.4433e-06
4.5773e-07
1.68771e-06
-1.1424e-08
-5.18832e-05
4.99326e-05
-4.46916e-05
-3.32018e-07
4.24356e-05
6.62848e-09
-1.80776e-07
-1.27666e-06
-4.54284e-05
3.10178e-06
4.82025e-05
-4.0847e-06
-7.16542e-05
-4.58379e-06
6.85641e-05
6.39723e-06
-1.10342e-06
4.99557e-06
-4.9437e-06
-8.75288e-06
8.554e-06
6.26737e-07
-2.92014e-05
3.13445e-05
-9.0496e-05
8.65389e-05
3.64284e-07
2.62953e-07
-6.62006e-05
-5.96432e-06
6.44102e-05
7.49171e-06
-4.97821e-05
5.90396e-06
-1.21715e-07
5.07219e-05
-6.45908e-06
6.57305e-07
-5.24959e-06
6.95703e-06
4.74127e-06
-2.594e-07
-5.39873e-06
-1.86893e-06
-8.25807e-05
7.84853e-05
-3.41879e-05
8.38461e-07
3.73845e-05
-1.28332e-06
6.16247e-07
4.62242e-08
-4.91662e-05
-9.61447e-07
4.92749e-05
6.84765e-07
-5.08094e-05
-1.13055e-06
8.9744e-09
5.05221e-05
1.45508e-06
1.48204e-09
-1.67678e-06
1.45778e-06
-1.52534e-06
5.25881e-09
1.85835e-06
1.0841e-07
-4.13118e-05
4.10804e-05
-4.84512e-05
1.31933e-08
4.74159e-05
5.47758e-08
5.52533e-09
1.97809e-11
-5.18144e-05
-1.02214e-06
5.1456e-05
1.38946e-06
-5.18149e-05
-1.02222e-06
-8.89421e-09
5.14564e-05
1.38957e-06
2.88741e-12
-1.35737e-06
1.71562e-06
-1.35746e-06
-5.23684e-09
1.71572e-06
9.13844e-12
-5.11344e-05
5.01254e-05
-5.11358e-05
-1.31232e-08
5.01267e-05
3.47851e-12
-5.49937e-09
-4.60072e-08
-5.08105e-05
-1.13096e-06
5.0523e-05
1.45563e-06
-4.91662e-05
-9.63096e-07
1.21787e-07
4.92743e-05
6.87177e-07
-1.39387e-09
-1.52575e-06
1.85879e-06
-1.67835e-06
2.59327e-07
1.45997e-06
-1.08095e-07
-4.8456e-05
4.742e-05
-4.1318e-05
-8.37385e-07
4.10842e-05
-5.45988e-08
-6.15377e-07
-2.63253e-07
-4.97763e-05
5.89724e-06
5.07163e-05
-6.45224e-06
-6.62007e-05
-5.95792e-06
6.4411e-05
7.48439e-06
-6.56932e-07
4.7335e-06
-5.39102e-06
-5.24335e-06
6.94981e-06
1.86582e-06
-3.41818e-05
3.73759e-05
-8.25763e-05
7.84842e-05
1.28074e-06
-3.24166e-07
-6.2929e-05
-5.90142e-06
6.16864e-05
7.46818e-06
-5.13785e-05
6.24885e-06
-2.73965e-10
5.18778e-05
-7.07202e-06
-5.47149e-08
-5.93863e-06
7.47457e-06
6.14693e-06
-5.06415e-08
-6.80767e-06
-2.80026e-06
-7.4893e-05
7.17918e-05
-4.01938e-05
1.11673e-06
4.25256e-05
-2.34629e-06
9.91369e-07
1.98031e-07
-4.94841e-05
-3.14274e-07
4.97518e-05
-1.51745e-07
-5.03401e-05
-5.52538e-07
3.3196e-08
5.02564e-05
8.01065e-07
1.25851e-07
-5.40254e-07
1.54575e-07
-7.95203e-07
1.98222e-08
1.08327e-06
2.09506e-07
-4.13647e-05
4.19576e-05
-4.67624e-05
3.71412e-08
4.63822e-05
1.66883e-07
2.51986e-08
-1.10518e-10
-5.11605e-05
-5.93175e-07
5.09439e-05
8.43009e-07
-5.11608e-05
-5.93651e-07
-3.31091e-08
5.09442e-05
8.43213e-07
8.00431e-12
-7.63222e-07
1.07858e-06
-7.6333e-07
-1.9709e-08
1.07871e-06
-1.1007e-09
-4.93874e-05
4.88325e-05
-4.93884e-05
-4.07069e-08
4.88344e-05
-5.27234e-11
-2.50493e-08
-1.97297e-07
-5.03405e-05
-5.53465e-07
5.02565e-05
8.01694e-07
-4.94827e-05
-3.14478e-07
1.96542e-10
4.97499e-05
-1.50195e-07
-1.25429e-07
-7.95679e-07
1.08384e-06
-5.41586e-07
5.06536e-08
1.57092e-07
-2.13589e-07
-4.67655e-05
4.63849e-05
-4.13668e-05
-1.11743e-06
4.19562e-05
-1.66194e-07
-9.90365e-07
3.23167e-07
-5.13734e-05
6.2446e-06
5.18729e-05
-7.06711e-06
-6.29301e-05
-5.89631e-06
6.16876e-05
7.46198e-06
5.40289e-08
6.14155e-06
-6.80197e-06
-5.93288e-06
7.46776e-06
2.7962e-06
-4.01842e-05
4.25151e-05
-7.48942e-05
7.17941e-05
2.34289e-06
-7.32213e-07
-6.06619e-05
-5.66944e-06
5.98032e-05
7.26027e-06
-5.22637e-05
6.20033e-06
1.78205e-08
5.25684e-05
-7.25512e-06
-5.42289e-07
-5.7174e-06
7.28427e-06
6.16192e-06
1.79434e-08
-7.10801e-06
-3.4654e-06
-6.92041e-05
6.70001e-05
-4.43734e-05
1.24438e-06
4.58639e-05
-3.12974e-06
1.18445e-06
3.11961e-07
-5.0036e-05
-1.71388e-07
5.0335e-05
-4.21821e-07
-5.02568e-05
-2.33752e-07
6.26876e-08
5.0322e-05
4.17743e-07
2.56311e-07
-2.0726e-07
-3.15245e-07
-3.64061e-07
4.6839e-08
5.73169e-07
2.82705e-07
-4.26846e-05
4.34749e-05
-4.62125e-05
6.58059e-08
4.61956e-05
2.50197e-07
5.58147e-08
-3.09552e-11
-5.08087e-05
-3.52076e-07
5.07423e-05
4.81171e-07
-5.08088e-05
-3.52399e-07
-6.25746e-08
5.07423e-05
4.8138e-07
3.24343e-11
-4.54884e-07
6.36977e-07
-4.54327e-07
-4.73568e-08
6.3716e-07
-4.81168e-10
-4.84313e-05
4.81455e-05
-4.84316e-05
-6.77314e-08
4.81464e-05
2.14952e-09
-4.93731e-08
-3.11604e-07
-5.02566e-05
-2.34213e-07
5.03216e-05
4.18251e-07
-5.00342e-05
-1.71732e-07
-1.80108e-08
5.0333e-05
-4.20635e-07
-2.56391e-07
-3.6487e-07
5.7377e-07
-2.09144e-07
-1.78244e-08
-3.13724e-07
-2.84104e-07
-4.62147e-05
4.61968e-05
-4.26844e-05
-1.24418e-06
4.34728e-05
-2.44045e-07
-1.18142e-06
7.31095e-07
-5.22595e-05
6.19689e-06
5.25647e-05
-7.25116e-06
-6.06634e-05
-5.66553e-06
5.98048e-05
7.25522e-06
5.41388e-07
6.15767e-06
-7.10354e-06
-5.71324e-06
7.27884e-06
3.46179e-06
-4.43644e-05
4.58553e-05
-6.92079e-05
6.70041e-05
3.12702e-06
-1.00753e-06
-5.90914e-05
-5.49048e-06
5.8494e-05
7.09539e-06
-5.2813e-05
6.15896e-06
-1.37254e-08
5.30156e-05
-7.35537e-06
-8.74732e-07
-5.51186e-06
7.09841e-06
6.10959e-06
5.64909e-09
-7.23453e-06
-3.92492e-06
-6.51681e-05
6.36026e-05
-4.70339e-05
1.28511e-06
4.79828e-05
-3.67988e-06
1.25975e-06
3.90345e-07
-5.06314e-05
-1.904e-07
5.09221e-05
-5.04434e-07
-5.04347e-05
-7.17851e-08
9.24591e-08
5.05833e-05
2.21137e-07
3.52036e-07
-1.68999e-07
-4.73731e-07
-1.36665e-07
7.69869e-08
2.99038e-07
3.3746e-07
-4.4256e-05
4.50132e-05
-4.62893e-05
9.24658e-08
4.64625e-05
3.09687e-07
7.93257e-08
3.51676e-11
-5.07351e-05
-1.92786e-07
5.07763e-05
2.44039e-07
-5.0735e-05
-1.92926e-07
-9.23173e-08
5.07761e-05
2.44183e-07
1.52519e-11
-2.62317e-07
3.46466e-07
-2.6247e-07
-7.68777e-08
3.46643e-07
3.32885e-11
-4.79625e-05
4.78621e-05
-4.79631e-05
-9.23492e-08
4.78625e-05
8.88272e-12
-7.91227e-08
-3.89988e-07
-5.04341e-05
-7.21498e-08
5.05824e-05
2.21448e-07
-5.06292e-05
-1.9059e-07
1.34898e-08
5.092e-05
-5.03648e-07
-3.51675e-07
-1.3712e-07
2.99461e-07
-1.69324e-07
-5.84578e-09
-4.72774e-07
-3.37179e-07
-4.629e-05
4.64626e-05
-4.42533e-05
-1.28464e-06
4.50102e-05
-3.09349e-07
-1.25921e-06
1.00644e-06
-5.28097e-05
6.156e-06
5.30127e-05
-7.35195e-06
-5.9093e-05
-5.48721e-06
5.84956e-05
7.09107e-06
8.73634e-07
6.10646e-06
-7.23092e-06
-5.50831e-06
7.09378e-06
3.92163e-06
-4.7026e-05
4.79758e-05
-6.51723e-05
6.36067e-05
3.67649e-06
-1.19246e-06
-5.79968e-05
-5.36581e-06
5.75795e-05
6.97552e-06
-5.31886e-05
6.14371e-06
-6.2474e-08
5.33386e-05
-7.42374e-06
-1.09805e-06
-5.36295e-06
6.95829e-06
6.08343e-06
-3.67172e-08
-7.31774e-06
-4.23836e-06
-6.22951e-05
6.11676e-05
-4.87364e-05
1.28221e-06
4.93595e-05
-4.0555e-06
1.2743e-06
4.37055e-07
-5.11989e-05
-2.53356e-07
5.14649e-05
-5.12151e-07
-5.07557e-05
2.2468e-09
1.1957e-07
5.09482e-05
1.2272e-07
4.12819e-07
-2.193e-07
-5.07021e-07
-2.78699e-08
1.05424e-07
1.62849e-07
3.74247e-07
-4.5714e-05
4.63686e-05
-4.66862e-05
1.13704e-07
4.6949e-05
3.54242e-07
1.02677e-07
5.31979e-11
-5.08559e-05
-8.25731e-08
5.09674e-05
9.06078e-08
-5.08557e-05
-8.2674e-08
-1.19395e-07
5.09671e-05
9.0683e-08
4.52387e-11
-1.31574e-07
1.57314e-07
-1.31694e-07
-1.05263e-07
1.57421e-07
5.47795e-11
-4.78332e-05
4.78643e-05
-4.78334e-05
-1.13546e-07
4.78643e-05
4.52341e-11
-1.02535e-07
-4.36732e-07
-5.07547e-05
2.02051e-09
5.09472e-05
1.22858e-07
-5.11968e-05
-2.53373e-07
6.21768e-08
5.14629e-05
-5.11598e-07
-4.12482e-07
-2.81272e-08
1.63057e-07
-2.1939e-07
3.64502e-08
-5.06374e-07
-3.73963e-07
-4.66859e-05
4.69484e-05
-4.57107e-05
-1.28187e-06
4.63653e-05
-3.53958e-07
-1.2739e-06
1.19144e-06
-5.3186e-05
6.14103e-06
5.33364e-05
-7.42065e-06
-5.79982e-05
-5.36296e-06
5.75809e-05
6.97173e-06
1.09701e-06
6.08065e-06
-7.31453e-06
-5.35992e-06
6.95428e-06
4.23531e-06
-4.87301e-05
4.9354e-05
-6.22992e-05
6.11715e-05
4.05235e-06
-1.31496e-06
-5.72311e-05
-5.27e-06
5.694e-05
6.87606e-06
-5.34738e-05
6.13063e-06
-1.13397e-07
5.35965e-05
-7.45497e-06
-1.24705e-06
-5.25521e-06
6.85063e-06
6.06979e-06
-8.72115e-08
-7.36478e-06
-4.44543e-06
-6.02204e-05
5.93958e-05
-4.98628e-05
1.25801e-06
5.02899e-05
-4.30792e-06
1.25865e-06
4.60973e-07
-5.17154e-05
-3.14326e-07
5.19553e-05
-4.99988e-07
-5.1147e-05
3.95141e-08
1.4193e-07
5.13545e-05
7.20419e-08
4.46749e-07
-2.83176e-07
-5.01292e-07
2.58041e-08
1.29801e-07
9.2343e-08
3.96523e-07
-4.69611e-05
4.75083e-05
-4.72367e-05
1.29521e-07
4.75432e-05
3.82929e-07
1.21065e-07
6.49433e-11
-5.11027e-05
-9.06821e-09
5.12549e-05
-1.20708e-09
-5.11025e-05
-9.13557e-09
-1.41735e-07
5.12546e-05
-1.18815e-09
5.89399e-11
-4.26071e-08
3.69869e-08
-4.26854e-08
-1.29619e-07
3.70292e-08
6.91369e-11
-4.79427e-05
4.8063e-05
-4.79426e-05
-1.29345e-07
4.80629e-05
6.15569e-11
-1.20899e-07
-4.60686e-07
-5.1146e-05
3.94228e-08
5.13534e-05
7.20534e-08
-5.17135e-05
-3.14256e-07
1.13073e-07
5.19535e-05
-4.99566e-07
-4.46448e-07
2.56339e-08
9.24113e-08
-2.8314e-07
8.68985e-08
-5.00818e-07
-3.96247e-07
-4.72357e-05
4.75421e-05
-4.69578e-05
-1.25776e-06
4.75051e-05
-3.82654e-07
-1.25837e-06
1.31404e-06
-5.34718e-05
6.12812e-06
5.35948e-05
-7.45211e-06
-5.72324e-05
-5.26744e-06
5.69413e-05
6.87265e-06
1.24609e-06
6.06722e-06
-7.36184e-06
-5.25252e-06
6.84706e-06
4.44262e-06
-4.98578e-05
5.02856e-05
-6.0224e-05
5.93992e-05
4.30502e-06
-1.39524e-06
-5.66969e-05
-5.19061e-06
5.6496e-05
6.78674e-06
-5.37129e-05
6.11443e-06
-1.60084e-07
5.38233e-05
-7.46e-06
-1.34613e-06
-5.17295e-06
6.76222e-06
6.05937e-06
-1.36051e-07
-7.38583e-06
-4.57876e-06
-5.86984e-05
5.80866e-05
-5.06437e-05
1.22507e-06
5.09543e-05
-4.47559e-06
1.23001e-06
4.69033e-07
-5.21818e-05
-3.61204e-07
5.23991e-05
-4.85198e-07
-5.15644e-05
4.82847e-08
1.59449e-07
5.17787e-05
4.7017e-08
4.61901e-07
-3.37224e-07
-4.87236e-07
4.51611e-08
1.49628e-07
5.71528e-08
4.08453e-07
-4.80015e-05
4.84569e-05
-4.7854e-05
1.39814e-07
4.81709e-05
3.99608e-07
1.3399e-07
4.25564e-11
-5.14242e-05
4.31277e-08
5.16071e-05
-6.66128e-08
-5.14239e-05
4.30956e-08
-1.59293e-07
5.16068e-05
-6.6627e-08
6.52091e-11
1.95192e-08
-3.92796e-08
1.94722e-08
-1.4943e-07
-3.92806e-08
6.36983e-11
-4.82165e-05
4.83994e-05
-4.82162e-05
-1.39647e-07
4.8399e-05
7.24734e-11
-1.3381e-07
-4.68792e-07
-5.15634e-05
4.83149e-08
5.17776e-05
4.69662e-08
-5.21802e-05
-3.61071e-07
1.60068e-07
5.23972e-05
-4.84824e-07
-4.61626e-07
4.51245e-08
5.71209e-08
-3.37132e-07
1.35758e-07
-4.86861e-07
-4.08152e-07
-4.78527e-05
4.81695e-05
-4.79984e-05
-1.22476e-06
4.84539e-05
-3.99327e-07
-1.22977e-06
1.39444e-06
-5.37114e-05
6.11201e-06
5.38224e-05
-7.45736e-06
-5.66981e-05
-5.18829e-06
5.64972e-05
6.78357e-06
1.34528e-06
6.05695e-06
-7.38309e-06
-5.1705e-06
6.75897e-06
4.5762e-06
-5.06398e-05
5.09508e-05
-5.87016e-05
5.80895e-05
4.47293e-06
-1.44442e-06
-5.63291e-05
-5.114e-06
5.61935e-05
6.69401e-06
-5.39322e-05
6.08162e-06
-1.8929e-07
5.4035e-05
-7.43957e-06
-1.40933e-06
-5.0952e-06
6.67142e-06
6.03535e-06
-1.77938e-07
-7.37565e-06
-4.65553e-06
-5.7568e-05
5.71095e-05
-5.12182e-05
1.18797e-06
5.14563e-05
-4.57661e-06
1.19486e-06
4.6802e-07
-5.26053e-05
-3.88865e-07
5.28074e-05
-4.70635e-07
-5.19913e-05
4.56136e-08
1.73694e-07
5.22058e-05
3.42161e-08
4.63946e-07
-3.75036e-07
-4.72987e-07
4.71144e-08
1.65014e-07
3.91829e-08
4.12958e-07
-4.88694e-05
4.92556e-05
-4.84837e-05
1.45395e-07
4.87969e-05
4.07297e-07
1.41632e-07
1.30393e-10
-5.17967e-05
7.72272e-08
5.19948e-05
-1.01721e-07
-5.17965e-05
7.71985e-08
-1.73289e-07
5.19944e-05
-1.01781e-07
-8.03613e-11
6.12968e-08
-8.58272e-08
6.1297e-08
-1.65248e-07
-8.58302e-08
9.42169e-11
-4.86023e-05
4.88248e-05
-4.86019e-05
-1.45182e-07
4.88244e-05
3.21198e-11
-1.41556e-07
-4.67228e-07
-5.19906e-05
4.56101e-08
5.22048e-05
3.40445e-08
-5.26045e-05
-3.89098e-07
1.91146e-07
5.28058e-05
-4.70626e-07
-4.6475e-07
4.73083e-08
3.92239e-08
-3.74403e-07
1.74423e-07
-4.72085e-07
-4.12675e-07
-4.84823e-05
4.87954e-05
-4.88667e-05
-1.18798e-06
4.92529e-05
-4.07056e-07
-1.19423e-06
1.44424e-06
-5.39303e-05
6.0797e-06
5.40343e-05
-7.43678e-06
-5.63298e-05
-5.1117e-06
5.61945e-05
6.69118e-06
1.40758e-06
6.0325e-06
-7.37355e-06
-5.09315e-06
6.66822e-06
4.65312e-06
-5.1215e-05
5.14535e-05
-5.75706e-05
5.7112e-05
4.57417e-06
-1.47367e-06
-5.60821e-05
-5.0396e-06
5.59951e-05
6.6002e-06
-5.41383e-05
6.03813e-06
-2.11843e-07
5.42391e-05
-7.40078e-06
-1.44749e-06
-5.02391e-06
6.58283e-06
5.99982e-06
-1.99915e-07
-7.35066e-06
-4.69352e-06
-5.672e-05
5.63739e-05
-5.16633e-05
1.15117e-06
5.18567e-05
-4.63441e-06
1.15842e-06
4.60736e-07
-5.30008e-05
-4.03649e-07
5.31893e-05
-4.5743e-07
-5.24163e-05
3.62187e-08
1.86249e-07
5.26257e-05
2.88567e-08
4.603e-07
-3.94394e-07
-4.59147e-07
4.09034e-08
1.78255e-07
3.06505e-08
4.12607e-07
-4.96102e-05
4.99451e-05
-4.91018e-05
1.47436e-07
4.94031e-05
4.09362e-07
1.4537e-07
7.17613e-11
-5.21956e-05
1.00055e-07
5.2402e-05
-1.20258e-07
-5.21953e-05
1.00048e-07
-1.86045e-07
5.24017e-05
-1.20321e-07
6.7591e-11
8.88622e-08
-1.11516e-07
8.88514e-08
-1.78074e-07
-1.11572e-07
7.07962e-11
-4.90589e-05
4.93064e-05
-4.90585e-05
-1.47287e-07
4.93059e-05
7.29162e-11
-1.45215e-07
-4.60534e-07
-5.24154e-05
3.63152e-08
5.26249e-05
2.872e-08
-5.29996e-05
-4.03615e-07
2.11671e-07
5.31881e-05
-4.5714e-07
-4.60204e-07
4.09922e-08
3.05335e-08
-3.94303e-07
1.99154e-07
-4.58793e-07
-4.12393e-07
-4.91004e-05
4.94018e-05
-4.96077e-05
-1.15107e-06
4.99428e-05
-4.09144e-07
-1.15828e-06
1.47299e-06
-5.41373e-05
6.03603e-06
5.42383e-05
-7.39834e-06
-5.60829e-05
-5.03751e-06
5.5996e-05
6.59748e-06
1.44666e-06
5.99764e-06
-7.34823e-06
-5.02177e-06
6.58003e-06
4.69123e-06
-5.16608e-05
5.18546e-05
-5.67223e-05
5.6376e-05
4.63207e-06
-1.48782e-06
-5.59248e-05
-4.96381e-06
5.58735e-05
6.50291e-06
-5.4341e-05
5.98322e-06
-2.29412e-07
5.44409e-05
-7.34158e-06
-1.46759e-06
-4.94752e-06
6.48543e-06
5.94861e-06
-2.18889e-07
-7.29914e-06
-4.70124e-06
-5.60806e-05
5.58181e-05
-5.20292e-05
1.11552e-06
5.21957e-05
-4.65421e-06
1.12194e-06
4.49772e-07
-5.33707e-05
-4.11166e-07
5.35479e-05
-4.45262e-07
-5.28304e-05
2.64454e-08
1.90986e-07
5.30338e-05
2.89376e-08
4.51042e-07
-4.04917e-07
-4.46417e-07
3.06241e-08
1.87521e-07
2.81938e-08
4.08805e-07
-5.02551e-05
5.05507e-05
-4.96947e-05
1.472e-07
4.99827e-05
4.07002e-07
1.46087e-07
6.67284e-11
-5.26072e-05
1.11954e-07
5.2814e-05
-1.27841e-07
-5.26069e-05
1.1196e-07
-1.90804e-07
5.28137e-05
-1.27909e-07
6.8102e-11
1.06204e-07
-1.23944e-07
1.06205e-07
-1.87333e-07
-1.2401e-07
6.61341e-11
-4.95586e-05
4.98177e-05
-4.95582e-05
-1.47064e-07
4.98172e-05
6.75185e-11
-1.45947e-07
-4.49606e-07
-5.28297e-05
2.65543e-08
5.30331e-05
2.87967e-08
-5.33696e-05
-4.11138e-07
2.29167e-07
5.3547e-05
-4.44965e-07
-4.50868e-07
3.07276e-08
2.80548e-08
-4.04883e-07
2.1864e-07
-4.46124e-07
-4.08609e-07
-4.96934e-05
4.99814e-05
-5.0253e-05
-1.11544e-06
5.05487e-05
-4.068e-07
-1.12185e-06
1.48718e-06
-5.43403e-05
5.98119e-06
5.44403e-05
-7.33924e-06
-5.59256e-05
-4.96183e-06
5.58743e-05
6.50033e-06
1.46694e-06
5.94656e-06
-7.29678e-06
-4.94548e-06
6.48279e-06
4.69908e-06
-5.20272e-05
5.21939e-05
-5.60825e-05
5.58198e-05
4.65201e-06
-1.49117e-06
-5.58332e-05
-4.88662e-06
5.58073e-05
6.40372e-06
-5.45417e-05
5.9169e-06
-2.432e-07
5.46401e-05
-7.26327e-06
-1.4764e-06
-4.87385e-06
6.39055e-06
5.891e-06
-2.34436e-07
-7.23377e-06
-4.68599e-06
-5.55957e-05
5.53951e-05
-5.23472e-05
1.0817e-06
5.24964e-05
-4.65149e-06
1.08792e-06
4.36796e-07
-5.37187e-05
-4.14186e-07
5.38853e-05
-4.32399e-07
-5.32314e-05
1.66773e-08
1.91132e-07
5.34264e-05
3.39875e-08
4.39165e-07
-4.09878e-07
-4.34549e-07
2.13512e-08
1.89567e-07
3.0651e-08
4.02736e-07
-5.08266e-05
5.10914e-05
-5.02611e-05
1.45493e-07
5.0535e-05
4.02135e-07
1.45102e-07
6.29295e-11
-5.30171e-05
1.15362e-07
5.32195e-05
-1.26639e-07
-5.30169e-05
1.15373e-07
-1.90961e-07
5.32192e-05
-1.26708e-07
6.41637e-11
1.1338e-07
-1.27004e-07
1.13388e-07
-1.89393e-07
-1.27072e-07
6.233e-11
-5.00761e-05
5.03369e-05
-5.00757e-05
-1.45366e-07
5.03365e-05
6.3633e-11
-1.44972e-07
-4.36649e-07
-5.32307e-05
1.68034e-08
5.34258e-05
3.3854e-08
-5.37179e-05
-4.14175e-07
2.42958e-07
5.38845e-05
-4.32093e-07
-4.39011e-07
2.14622e-08
3.05147e-08
-4.09859e-07
2.34194e-07
-4.3425e-07
-4.02553e-07
-5.02599e-05
5.05339e-05
-5.08247e-05
-1.08163e-06
5.10896e-05
-4.01948e-07
-1.08785e-06
1.49058e-06
-5.45412e-05
5.91492e-06
5.46397e-05
-7.26101e-06
-5.58339e-05
-4.88472e-06
5.58079e-05
6.40128e-06
1.47579e-06
5.88901e-06
-7.2315e-06
-4.8719e-06
6.38804e-06
4.68394e-06
-5.23457e-05
5.2495e-05
-5.55973e-05
5.53965e-05
4.64941e-06
-1.48652e-06
-5.57873e-05
-4.80859e-06
5.57776e-05
6.30485e-06
-5.47386e-05
5.83915e-06
-2.53607e-07
5.48332e-05
-7.1667e-06
-1.47486e-06
-4.79474e-06
6.28956e-06
5.81717e-06
-2.46267e-07
-7.14418e-06
-4.65302e-06
-5.52256e-05
5.507e-05
-5.26334e-05
1.04987e-06
5.27696e-05
-4.62525e-06
1.05499e-06
4.23171e-07
-5.40453e-05
-4.1554e-07
5.42003e-05
-4.16213e-07
-5.36149e-05
5.49528e-09
1.88741e-07
5.37988e-05
4.49959e-08
4.25649e-07
-4.11598e-07
-4.20295e-07
1.04167e-08
1.88328e-07
3.84674e-08
3.95279e-07
-5.13396e-05
5.15786e-05
-5.07978e-05
1.42882e-07
5.10557e-05
3.95207e-07
1.42836e-07
5.99618e-11
-5.3416e-05
1.12474e-07
5.36095e-05
-1.17304e-07
-5.34158e-05
1.12491e-07
-1.88585e-07
5.36093e-05
-1.17371e-07
6.10413e-11
1.13462e-07
-1.21719e-07
1.13477e-07
-1.88168e-07
-1.21787e-07
5.83775e-11
-5.05931e-05
5.08484e-05
-5.05927e-05
-1.42762e-07
5.0848e-05
5.96942e-11
-1.42715e-07
-4.23038e-07
-5.36143e-05
5.59525e-09
5.37982e-05
4.48763e-08
-5.40446e-05
-4.15547e-07
2.53371e-07
5.41996e-05
-4.15895e-07
-4.2551e-07
1.05102e-08
3.83422e-08
-4.11596e-07
2.46031e-07
-4.19985e-07
-3.95108e-07
-5.07967e-05
5.10546e-05
-5.13379e-05
-1.0498e-06
5.15771e-05
-3.95032e-07
-1.05493e-06
1.48597e-06
-5.47381e-05
5.83723e-06
5.48328e-05
-7.16451e-06
-5.57879e-05
-4.80676e-06
5.57781e-05
6.30251e-06
1.4743e-06
5.81524e-06
-7.14197e-06
-4.79288e-06
6.28718e-06
4.65106e-06
-5.26321e-05
5.27684e-05
-5.52269e-05
5.50712e-05
4.62327e-06
-1.47647e-06
-5.57694e-05
-4.73354e-06
5.57673e-05
6.21203e-06
-5.49262e-05
5.7529e-06
-2.61146e-07
5.50133e-05
-7.05535e-06
-1.46707e-06
-4.71782e-06
6.19313e-06
5.73478e-06
-2.55041e-07
-7.03984e-06
-4.6081e-06
-5.49375e-05
5.48121e-05
-5.28946e-05
1.02037e-06
5.30191e-05
-4.58536e-06
1.02444e-06
4.09924e-07
-5.43477e-05
-4.1755e-07
5.44886e-05
-3.9441e-07
-5.39741e-05
-7.83346e-09
1.84834e-07
5.41437e-05
6.32825e-08
4.12228e-07
-4.12908e-07
-4.01755e-07
-7.32181e-10
1.84965e-07
5.26992e-08
3.87156e-07
-5.18028e-05
5.20185e-05
-5.13023e-05
1.3986e-07
5.15418e-05
3.87346e-07
1.39989e-07
5.64911e-11
-5.37949e-05
1.04046e-07
5.3975e-05
-9.93701e-08
-5.37947e-05
1.04064e-07
-1.84686e-07
5.39748e-05
-9.94337e-08
5.75783e-11
1.07817e-07
-1.08352e-07
1.07834e-07
-1.84814e-07
-1.08417e-07
5.4754e-11
-5.10962e-05
5.134e-05
-5.10958e-05
-1.39747e-07
5.13397e-05
5.59859e-11
-1.39874e-07
-4.09802e-07
-5.39736e-05
-7.73075e-09
5.41432e-05
6.31781e-08
-5.4347e-05
-4.17576e-07
2.60916e-07
5.4488e-05
-3.94078e-07
-4.12102e-07
-6.33326e-10
5.25883e-08
-4.12925e-07
2.54811e-07
-4.01432e-07
-3.86995e-07
-5.13013e-05
5.15408e-05
-5.18013e-05
-1.02031e-06
5.20171e-05
-3.87182e-07
-1.02438e-06
1.47596e-06
-5.49259e-05
5.75102e-06
5.5013e-05
-7.05322e-06
-5.57699e-05
-4.73176e-06
5.57678e-05
6.20978e-06
1.46655e-06
5.7329e-06
-7.0377e-06
-4.71602e-06
6.19084e-06
4.60624e-06
-5.28935e-05
5.3018e-05
-5.49386e-05
5.48131e-05
4.58347e-06
-1.46062e-06
-5.57624e-05
-4.65636e-06
5.57593e-05
6.1201e-06
-5.50967e-05
5.65057e-06
-2.65889e-07
5.51713e-05
-6.91998e-06
-1.45409e-06
-4.64231e-06
6.10136e-06
5.64146e-06
-2.61074e-07
-6.9178e-06
-4.5486e-06
-5.47032e-05
5.45954e-05
-5.31314e-05
9.91837e-07
5.32415e-05
-4.53337e-06
9.9574e-07
3.97073e-07
-5.46202e-05
-4.21984e-07
5.4743e-05
-3.63741e-07
-5.43027e-05
-2.32306e-08
1.79645e-07
5.44526e-05
9.07375e-08
3.99237e-07
-4.15867e-07
-3.76102e-07
-1.52659e-08
1.80467e-07
7.51117e-08
3.78307e-07
-5.22194e-05
5.2411e-05
-5.17686e-05
1.36523e-07
5.19872e-05
3.78916e-07
1.36806e-07
5.34339e-11
-5.41446e-05
8.94598e-08
5.43059e-05
-7.11101e-08
-5.41445e-05
8.94765e-08
-1.79507e-07
5.43057e-05
-7.11684e-08
5.45678e-11
9.65114e-08
-8.57185e-08
9.65294e-08
-1.80327e-07
-8.5779e-08
5.13417e-11
-5.15733e-05
5.17992e-05
-5.15729e-05
-1.36416e-07
5.17989e-05
5.23905e-11
-1.36697e-07
-3.9696e-07
-5.43022e-05
-2.31523e-08
5.44522e-05
9.06538e-08
-5.46197e-05
-4.22037e-07
2.65664e-07
5.47425e-05
-3.6339e-07
-3.99121e-07
-1.51876e-08
7.50184e-08
-4.15904e-07
2.60849e-07
-3.75764e-07
-3.78153e-07
-5.17677e-05
5.19863e-05
-5.22181e-05
-9.91781e-07
5.24097e-05
-3.7876e-07
-9.95682e-07
1.46015e-06
-5.50964e-05
5.64871e-06
5.51711e-05
-6.9179e-06
-5.57628e-05
-4.65459e-06
5.57597e-05
6.11789e-06
1.45361e-06
5.63961e-06
-6.91572e-06
-4.64054e-06
6.09914e-06
4.54682e-06
-5.31303e-05
5.32404e-05
-5.47041e-05
5.45964e-05
4.53157e-06
-1.44183e-06
-5.57489e-05
-4.58531e-06
5.57358e-05
6.04025e-06
-5.52393e-05
5.53947e-06
-2.68516e-07
5.52952e-05
-6.76869e-06
-1.43714e-06
-4.56983e-06
6.01728e-06
5.53716e-06
-2.64736e-07
-6.77754e-06
-4.4823e-06
-5.44974e-05
5.43944e-05
-5.33382e-05
9.65317e-07
5.343e-05
-4.4718e-06
9.6872e-07
3.85274e-07
-5.48542e-05
-4.30751e-07
5.49535e-05
-3.22355e-07
-5.45894e-05
-4.33857e-08
1.74248e-07
5.47142e-05
1.29538e-07
3.87128e-07
-4.22278e-07
-3.40826e-07
-3.23817e-08
1.75106e-07
1.07606e-07
3.69476e-07
-5.25872e-05
5.27523e-05
-5.21915e-05
1.33191e-07
5.23844e-05
3.70202e-07
1.33532e-07
5.10071e-11
-5.4454e-05
6.76552e-08
5.45904e-05
-2.98147e-08
-5.44538e-05
6.76667e-08
-1.74113e-07
5.45902e-05
-2.98681e-08
5.14516e-11
7.8789e-08
-5.18501e-08
7.88033e-08
-1.74971e-07
-5.19047e-08
4.92476e-11
-5.20115e-05
5.22123e-05
-5.20112e-05
-1.33087e-07
5.2212e-05
4.95884e-11
-1.33428e-07
-3.85163e-07
-5.4589e-05
-4.33264e-08
5.47139e-05
1.29481e-07
-5.48538e-05
-4.30864e-07
2.68314e-07
5.49531e-05
-3.21975e-07
-3.8702e-07
-3.23115e-08
1.07536e-07
-4.22354e-07
2.64517e-07
-3.40465e-07
-3.69327e-07
-5.21906e-05
5.23835e-05
-5.25859e-05
-9.65273e-07
5.2751e-05
-3.70053e-07
-9.68669e-07
1.44139e-06
-5.52391e-05
5.53754e-06
5.52951e-05
-6.76662e-06
-5.57493e-05
-4.5834e-06
5.57361e-05
6.03802e-06
1.43668e-06
5.53531e-06
-6.77549e-06
-4.56803e-06
6.01508e-06
4.48059e-06
-5.3337e-05
5.34287e-05
-5.44984e-05
5.43956e-05
4.47008e-06
-1.42027e-06
-5.57111e-05
-4.5198e-06
5.56785e-05
5.97268e-06
-5.53409e-05
5.41655e-06
-2.69308e-07
5.53705e-05
-6.59709e-06
-1.41708e-06
-4.50238e-06
5.9442e-06
5.42169e-06
-2.66369e-07
-6.61809e-06
-4.40898e-06
-5.42946e-05
5.41837e-05
-5.35059e-05
9.40233e-07
5.35733e-05
-4.40258e-06
9.43205e-07
3.74384e-07
-5.50384e-05
-4.45251e-07
5.51077e-05
-2.677e-07
-5.48229e-05
-6.9805e-08
1.68318e-07
5.49161e-05
1.82652e-07
3.7591e-07
-4.3358e-07
-2.93591e-07
-5.52778e-08
1.69952e-07
1.52563e-07
3.60733e-07
-5.29004e-05
5.30347e-05
-5.25604e-05
1.29795e-07
5.27215e-05
3.6149e-07
1.30213e-07
4.76251e-11
-5.47072e-05
3.9745e-08
5.48109e-05
2.48318e-08
-5.47071e-05
3.97513e-08
-1.68195e-07
5.48108e-05
2.47917e-08
4.92392e-11
5.33309e-08
-2.89722e-10
5.33376e-08
-1.69822e-07
-3.33835e-10
4.77593e-11
-5.23958e-05
5.25653e-05
-5.23955e-05
-1.29693e-07
5.2565e-05
4.7903e-11
-1.30111e-07
-3.74286e-07
-5.48226e-05
-6.97532e-08
5.49158e-05
1.826e-07
-5.50381e-05
-4.45389e-07
2.69102e-07
5.51074e-05
-2.67325e-07
-3.75804e-07
-5.52287e-08
1.52517e-07
-4.33731e-07
2.66177e-07
-2.93201e-07
-3.60585e-07
-5.25595e-05
5.27207e-05
-5.28991e-05
-9.40206e-07
5.30333e-05
-3.61344e-07
-9.43168e-07
1.41987e-06
-5.5341e-05
5.41479e-06
5.53707e-05
-6.59527e-06
-5.57111e-05
-4.51806e-06
5.56783e-05
5.97073e-06
1.41666e-06
5.41966e-06
-6.61605e-06
-4.50032e-06
5.94198e-06
4.40745e-06
-5.35042e-05
5.35713e-05
-5.42962e-05
5.41856e-05
4.40095e-06
-1.39649e-06
-5.56299e-05
-4.46063e-06
5.55675e-05
5.91954e-06
-5.53855e-05
5.28049e-06
-2.68377e-07
5.53803e-05
-6.40338e-06
-1.39464e-06
-4.44134e-06
5.88456e-06
5.29447e-06
-2.66346e-07
-6.43781e-06
-4.33011e-06
-5.40695e-05
5.3939e-05
-5.36216e-05
9.16407e-07
5.36556e-05
-4.32712e-06
9.19028e-07
3.64497e-07
-5.51591e-05
-4.66612e-07
5.51908e-05
-1.97945e-07
-5.49903e-05
-1.03742e-07
1.61397e-07
5.50446e-05
2.52515e-07
3.65583e-07
-4.51161e-07
-2.32203e-07
-8.49807e-08
1.63161e-07
2.13277e-07
3.52152e-07
-5.31496e-05
5.32473e-05
-5.28626e-05
1.26371e-07
5.29847e-05
3.52916e-07
1.26817e-07
5.35126e-11
-5.48953e-05
4.09181e-09
5.49592e-05
9.33757e-08
-5.48952e-05
4.1133e-09
-1.61263e-07
5.4959e-05
9.33132e-08
4.73164e-11
2.28331e-08
5.5909e-08
2.28426e-08
-1.6304e-07
5.58621e-08
6.1437e-11
-5.27149e-05
5.28453e-05
-5.27146e-05
-1.26245e-07
5.2845e-05
4.97946e-11
-1.26711e-07
-3.64387e-07
-5.499e-05
-1.03623e-07
5.50443e-05
2.52384e-07
-5.51589e-05
-4.66539e-07
2.68233e-07
5.51906e-05
-1.97763e-07
-3.65487e-07
-8.49192e-08
2.13209e-07
-4.51306e-07
2.6615e-07
-2.31861e-07
-3.51985e-07
-5.28618e-05
5.29839e-05
-5.31483e-05
-9.16423e-07
5.32462e-05
-3.52765e-07
-9.19018e-07
1.39615e-06
-5.53862e-05
5.27958e-06
5.53808e-05
-6.40211e-06
-5.56292e-05
-4.45994e-06
5.55668e-05
5.91842e-06
1.39425e-06
5.29248e-06
-6.43608e-06
-4.43943e-06
5.88278e-06
4.32875e-06
-5.36191e-05
5.36535e-05
-5.40719e-05
5.39407e-05
4.3257e-06
-1.37119e-06
-5.54822e-05
-4.40607e-06
5.53772e-05
5.88225e-06
-5.5358e-05
5.12785e-06
-2.66267e-07
5.53102e-05
-6.185e-06
-1.36979e-06
-4.38207e-06
5.83712e-06
5.14876e-06
-2.64609e-07
-6.23167e-06
-4.24512e-06
-5.3802e-05
5.3641e-05
-5.36636e-05
8.93638e-07
5.36527e-05
-4.24503e-06
8.95736e-07
3.55571e-07
-5.52013e-05
-4.94693e-07
5.51876e-05
-1.135e-07
-5.50757e-05
-1.47464e-07
1.54139e-07
5.5082e-05
3.4263e-07
3.56182e-07
-4.75848e-07
-1.55412e-07
-1.23191e-07
1.56123e-07
2.92079e-07
3.43638e-07
-5.33228e-05
5.33781e-05
-5.30824e-05
1.22998e-07
5.31556e-05
3.44372e-07
1.23413e-07
1.03636e-10
-5.49997e-05
-4.36918e-08
5.50144e-05
1.83042e-07
-5.49996e-05
-4.36671e-08
-1.53915e-07
5.50143e-05
1.82958e-07
6.49533e-11
-1.87386e-08
1.34276e-07
-1.8706e-08
-1.55971e-07
1.34198e-07
1.26208e-10
-5.29498e-05
5.3029e-05
-5.29496e-05
-1.22742e-07
5.30288e-05
8.82519e-11
-1.23248e-07
-3.55384e-07
-5.50755e-05
-1.47321e-07
5.50819e-05
3.42389e-07
-5.52009e-05
-4.94394e-07
2.6629e-07
5.51879e-05
-1.14319e-07
-3.56057e-07
-1.23e-07
2.9187e-07
-4.75374e-07
2.64524e-07
-1.55494e-07
-3.43348e-07
-5.30818e-05
5.31551e-05
-5.33224e-05
-8.93524e-07
5.33782e-05
-3.44169e-07
-8.95751e-07
1.37055e-06
-5.53566e-05
5.12895e-06
5.53075e-05
-6.18413e-06
-5.54835e-05
-4.40769e-06
5.53801e-05
5.88162e-06
1.36934e-06
5.15065e-06
-6.23126e-06
-4.38444e-06
5.83712e-06
4.24349e-06
-5.36646e-05
5.36566e-05
-5.38e-05
5.36358e-05
4.24377e-06
-1.3441e-06
-5.52467e-05
-4.36913e-06
5.5091e-05
5.86897e-06
-5.52388e-05
4.96916e-06
-2.62485e-07
5.51345e-05
-5.94653e-06
-1.34457e-06
-4.33853e-06
5.81362e-06
4.99733e-06
-2.63326e-07
-6.00712e-06
-4.15864e-06
-5.34629e-05
5.32524e-05
-5.36155e-05
8.7246e-07
5.35535e-05
-4.1604e-06
8.74118e-07
3.46893e-07
-5.51542e-05
-5.3315e-07
5.50901e-05
-1.2161e-08
-5.50614e-05
-2.01016e-07
1.47126e-07
5.50103e-05
4.5189e-07
3.48593e-07
-5.06191e-07
-7.23231e-08
-1.71246e-07
1.49087e-07
3.91317e-07
3.34851e-07
-5.34099e-05
5.34144e-05
-5.32003e-05
1.19593e-07
5.32145e-05
3.36086e-07
1.20173e-07
1.00909e-10
-5.50004e-05
-1.01656e-07
5.4955e-05
2.94061e-07
-5.50002e-05
-1.0165e-07
-1.46899e-07
5.49549e-05
2.94005e-07
2.16476e-10
-7.07324e-08
2.33557e-07
-7.0748e-08
-1.48409e-07
2.3344e-07
1.26535e-10
-5.30783e-05
5.30961e-05
-5.3078e-05
-1.19327e-07
5.30958e-05
1.7805e-10
-1.19759e-07
-3.46635e-07
-5.5061e-05
-2.01035e-07
5.501e-05
4.51769e-07
-5.5153e-05
-5.33802e-07
2.62027e-07
5.50899e-05
-1.18053e-08
-3.46962e-07
-1.7137e-07
3.90848e-07
-5.07475e-07
2.60621e-07
-6.51522e-08
-3.34538e-07
-5.31995e-05
5.32137e-05
-5.34091e-05
-8.72239e-07
5.3413e-05
-3.35565e-07
-8.73984e-07
1.34323e-06
-5.52378e-05
4.96237e-06
5.51372e-05
-5.94306e-06
-5.52468e-05
-4.36244e-06
5.50879e-05
5.86453e-06
1.34304e-06
4.99186e-06
-6.00451e-06
-4.33356e-06
5.80992e-06
4.15711e-06
-5.36159e-05
5.35489e-05
-5.34608e-05
5.32555e-05
4.15857e-06
-1.31615e-06
-5.49e-05
-4.3357e-06
5.46763e-05
5.87552e-06
-5.50051e-05
4.7915e-06
-2.55826e-07
5.48369e-05
-5.68358e-06
-1.31663e-06
-4.30056e-06
5.80816e-06
4.82684e-06
-2.56894e-07
-5.75716e-06
-4.06829e-06
-5.30247e-05
5.27573e-05
-5.34536e-05
8.5339e-07
5.33234e-05
-4.07287e-06
8.53942e-07
3.35166e-07
-5.5e-05
-5.97129e-07
5.48612e-05
1.44886e-07
-5.49268e-05
-2.6599e-07
1.43155e-07
5.48047e-05
5.80024e-07
3.38095e-07
-5.56184e-07
5.13358e-08
-2.29924e-07
1.43e-07
5.08585e-07
3.25526e-07
-5.33852e-05
5.3316e-05
-5.31949e-05
1.16093e-07
5.31383e-05
3.26922e-07
1.16652e-07
3.81084e-11