/*--------------------------------*- C++ -*----------------------------------*\
  =========                 |
  \\      /  F ield         | OpenFOAM: The Open Source CFD Toolbox
   \\    /   O peration     | Website:  https://openfoam.org
    \\  /    A nd           | Version:  9
     \\/     M anipulation  |
\*---------------------------------------------------------------------------*/
FoamFile
{
    format      ascii;
    class       volScalarField;
    location    "0.8";
    object      k;
}
// * * * * * * * * * * * * * * * * * * * * * * * * * * * * * * * * * * * * * //

dimensions      [0 2 -2 0 0 0 0];

internalField   nonuniform List<scalar> 
36360
(
0.0358619
0.0279312
0.0132567
0.0122506
0.00740719
0.00469085
0.00416909
0.00348926
0.00574979
0.00223367
0.00367869
0.00283672
0.00248779
0.00222885
0.00303359
0.00300841
0.00199796
0.00199795
0.00282129
0.00282129
0.00221012
0.00221011
0.0030069
0.0030069
0.00223335
0.0057484
0.00283675
0.00367849
0.00222883
0.00248761
0.00300841
0.0030336
0.0279295
0.035866
0.0122508
0.0132568
0.00469058
0.00740781
0.00348925
0.00416912
0.0593287
0.0452737
0.0510541
0.0389908
0.0141925
0.00862751
0.0116767
0.00709962
0.0125584
0.00263071
0.00984829
0.0023626
0.00276321
0.00173636
0.00257154
0.00186632
0.00153617
0.00153586
0.0016531
0.00165295
0.00166208
0.00166206
0.00181583
0.00181582
0.00262735
0.0125485
0.00236114
0.00984231
0.00173605
0.00276129
0.00186615
0.00257061
0.0452687
0.0593423
0.0389872
0.0510632
0.00862548
0.0141965
0.00709835
0.0116792
0.0647323
0.049501
0.0632113
0.0482985
0.0157267
0.00972497
0.0153021
0.00939372
0.0144766
0.00290548
0.0139308
0.00282458
0.00297493
0.00169368
0.00291118
0.00170108
0.0014984
0.00149792
0.00150507
0.00150465
0.00160121
0.00160118
0.00161349
0.00161346
0.0029005
0.0144629
0.00282016
0.0139184
0.00169323
0.00297217
0.00170067
0.00290872
0.0494948
0.0647508
0.0482927
0.0632281
0.00972232
0.0157323
0.00939128
0.0153072
0.0653544
0.0500252
0.0652442
0.0499225
0.0158869
0.00987807
0.0158629
0.00984714
0.0147077
0.00293876
0.0146643
0.00293303
0.00300335
0.00169212
0.00299818
0.00169245
0.00149705
0.00149655
0.0014971
0.0014966
0.00159789
0.00159785
0.00159846
0.00159842
0.00293354
0.0146933
0.00292785
0.01465
0.00169164
0.00300049
0.00169198
0.00299533
0.0500189
0.0653742
0.0499162
0.0652636
0.00987541
0.0158928
0.00984445
0.0158688
0.0653427
0.0500358
0.0653728
0.0500512
0.0158781
0.00988067
0.0158891
0.00988554
0.0147129
0.00293836
0.0147188
0.00293968
0.00300313
0.00169135
0.00300433
0.00169158
0.00149699
0.0014965
0.00149694
0.00149645
0.00159742
0.00159738
0.00159733
0.00159729
0.00293315
0.0146986
0.00293446
0.0147045
0.00169088
0.00300028
0.00169111
0.00300147
0.0500295
0.0653627
0.0500449
0.0653928
0.00987804
0.0158841
0.0098829
0.0158951
0.065279
0.0499978
0.0653269
0.0500297
0.0158548
0.00986427
0.0158712
0.00987638
0.0146976
0.00293479
0.0147114
0.0029375
0.00299944
0.00169038
0.00300225
0.00169103
0.00149669
0.00149619
0.00149677
0.00149628
0.0015967
0.00159666
0.00159714
0.00159711
0.00292959
0.0146833
0.00293229
0.0146971
0.00168991
0.0029966
0.00169056
0.00299939
0.0499915
0.065299
0.0500234
0.0653468
0.00986168
0.0158608
0.00987377
0.0158772
0.0651907
0.0499404
0.0652497
0.0499805
0.0158254
0.00984079
0.0158445
0.0098559
0.0146721
0.00292991
0.0146904
0.00293327
0.00299398
0.00168894
0.00299758
0.00168963
0.00149632
0.00149583
0.00149648
0.00149599
0.00159563
0.00159559
0.00159603
0.00159599
0.00292474
0.0146579
0.00292808
0.0146761
0.00168848
0.00299115
0.00168916
0.00299474
0.0499341
0.0652106
0.0499743
0.0652697
0.0098382
0.0158314
0.00985331
0.0158505
0.065085
0.049872
0.0651527
0.0499173
0.0157921
0.00981416
0.0158132
0.00983077
0.0146412
0.00292387
0.0146621
0.00292768
0.00298764
0.0016874
0.00299167
0.00168815
0.0014959
0.00149541
0.00149606
0.00149557
0.00159457
0.00159454
0.00159502
0.00159498
0.00291872
0.014627
0.00292251
0.0146478
0.00168694
0.00298482
0.00168769
0.00298885
0.0498658
0.065105
0.0499111
0.0651727
0.0098116
0.0157981
0.0098282
0.0158192
0.0649629
0.0497947
0.065039
0.0498446
0.015755
0.00978517
0.0157781
0.00980296
0.0146064
0.00291771
0.0146292
0.00292175
0.00298058
0.00168569
0.00298499
0.00168656
0.00149551
0.00149502
0.00149569
0.0014952
0.0015933
0.00159326
0.00159384
0.00159381
0.00291258
0.0145922
0.00291661
0.014615
0.00168523
0.00297777
0.00168609
0.00298218
0.0497885
0.0649828
0.0498383
0.0650589
0.0097826
0.0157611
0.00980039
0.0157841
0.0648249
0.0497091
0.0649093
0.0497634
0.0157143
0.00975335
0.0157394
0.00977273
0.014568
0.00291057
0.0145927
0.00291496
0.00297282
0.0016837
0.00297759
0.00168468
0.00149501
0.00149453
0.00149521
0.00149473
0.00159181
0.00159177
0.00159246
0.00159242
0.00290544
0.0145538
0.00290983
0.0145785
0.00168324
0.00297001
0.00168422
0.00297478
0.0497028
0.0648446
0.0497571
0.0649291
0.00975075
0.0157203
0.00977015
0.0157453
0.0646697
0.0496143
0.0647631
0.0496734
0.0156695
0.00971901
0.0156968
0.00973971
0.0145259
0.00290333
0.0145526
0.00290796
0.00296436
0.00168149
0.00296951
0.00168261
0.00149456
0.00149407
0.00149477
0.00149429
0.00159008
0.00159004
0.00159085
0.00159082
0.00289821
0.0145117
0.00290284
0.0145384
0.00168103
0.00296155
0.00168215
0.0029667
0.0496079
0.0646892
0.0496671
0.0647828
0.00971637
0.0156754
0.00973709
0.0157027
0.0644962
0.04951
0.0645993
0.0495743
0.0156203
0.00968195
0.01565
0.00970406
0.0144799
0.00289505
0.0145087
0.00290004
0.00295513
0.00167894
0.00296068
0.0016802
0.00149399
0.00149351
0.00149423
0.00149375
0.00158806
0.00158803
0.00158898
0.00158894
0.00288995
0.0144657
0.00289493
0.0144944
0.00167848
0.00295232
0.00167974
0.00295787
0.0495035
0.0645156
0.0495678
0.0646188
0.00967928
0.0156261
0.00970141
0.0156558
0.0643027
0.049395
0.0644162
0.0494648
0.0155661
0.00964198
0.0155984
0.00966563
0.0144296
0.0028866
0.0144607
0.00289184
0.00294504
0.0016761
0.00295104
0.00167752
0.00149349
0.00149301
0.00149371
0.00149323
0.00158576
0.00158572
0.00158682
0.00158678
0.00288153
0.0144154
0.00288675
0.0144464
0.00167564
0.00294225
0.00167706
0.00294824
0.0493885
0.0643221
0.0494583
0.0644355
0.00963931
0.0155719
0.00966296
0.0156042
0.0640885
0.0492691
0.0642126
0.0493445
0.0155066
0.00959862
0.0155416
0.009624
0.0143748
0.00287721
0.0144082
0.00288292
0.00293405
0.00167287
0.00294051
0.00167449
0.00149288
0.00149241
0.00149317
0.00149269
0.00158311
0.00158308
0.00158435
0.00158431
0.00287216
0.0143606
0.00287786
0.014394
0.00167242
0.00293127
0.00167403
0.00293772
0.0492625
0.0641077
0.049338
0.0642319
0.00959595
0.0155123
0.00962133
0.0155474
0.0638521
0.0491313
0.0639877
0.0492129
0.0154415
0.00955173
0.0154794
0.00957889
0.0143151
0.00286702
0.0143511
0.00287315
0.00292212
0.00166924
0.00292907
0.00167106
0.00149221
0.00149174
0.00149252
0.00149205
0.00158011
0.00158007
0.00158152
0.00158148
0.00286201
0.014301
0.00286812
0.014337
0.00166879
0.00291936
0.0016706
0.00292629
0.0491248
0.0638712
0.0492064
0.0640069
0.00954906
0.0154472
0.00957622
0.0154851
0.0635926
0.0489817
0.0637401
0.0490694
0.0153704
0.00950146
0.0154114
0.00953029
0.0142503
0.00285597
0.014289
0.00286256
0.00290922
0.00166516
0.00291666
0.0016672
0.00149147
0.00149101
0.00149182
0.00149135
0.0015767
0.00157667
0.00157832
0.00157828
0.002851
0.0142362
0.00285756
0.0142749
0.00166472
0.00290647
0.00166676
0.00291391
0.0489751
0.0636117
0.0490628
0.0637592
0.00949879
0.0153761
0.00952763
0.0154171
0.0633082
0.0488201
0.0634687
0.0489141
0.0152931
0.00944807
0.0153372
0.0094784
0.0141798
0.00284403
0.0142215
0.00285108
0.0028953
0.00166062
0.00290326
0.0016629
0.00149067
0.0014902
0.00149105
0.00149059
0.00157287
0.00157283
0.0015747
0.00157466
0.0028391
0.0141658
0.00284613
0.0142075
0.00166018
0.00289258
0.00166245
0.00290053
0.0488136
0.0633271
0.0489075
0.0634877
0.00944541
0.0152987
0.00947574
0.0153429
0.0629967
0.0486436
0.063171
0.0487456
0.0152092
0.0093923
0.0152566
0.00942368
0.014103
0.00283118
0.014148
0.0028387
0.00288035
0.00165557
0.00288884
0.0016581
0.0014898
0.00148934
0.00149021
0.00148975
0.00156857
0.00156854
0.00157063
0.0015706
0.0028263
0.0140891
0.00283379
0.014134
0.00165513
0.00287765
0.00165766
0.00288613
0.048637
0.0630155
0.048739
0.0631899
0.00938964
0.0152148
0.00942102
0.0152622
0.0626577
0.0484489
0.0628459
0.0485605
0.0151186
0.00933529
0.0151694
0.00936706
0.0140196
0.00281744
0.0140679
0.00282541
0.00286432
0.00164997
0.00287335
0.00165278
0.00148886
0.0014884
0.0014893
0.00148885
0.00156378
0.00156374
0.00156609
0.00156606
0.0028126
0.0140057
0.00282055
0.014054
0.00164954
0.00286164
0.00165234
0.00287066
0.0484422
0.0626763
0.0485539
0.0628646
0.00933264
0.0151242
0.0093644
0.0151749
0.0622919
0.048234
0.0624935
0.0483554
0.0150213
0.00927769
0.0150755
0.00930998
0.0139301
0.00280284
0.0139814
0.00281123
0.0028471
0.0016438
0.00285674
0.0016469
0.00148785
0.0014874
0.00148833
0.00148788
0.00155846
0.00155843
0.00156104
0.001561
0.00279805
0.0139163
0.00280642
0.0139675
0.00164337
0.00284444
0.00164647
0.00285407
0.0482274
0.0623104
0.0483488
0.0625121
0.00927504
0.0150268
0.00930733
0.015081
0.0618997
0.0480047
0.0621147
0.0481332
0.0149172
0.00921647
0.0149747
0.00925072
0.0138349
0.00278739
0.013889
0.00279619
0.00282861
0.00163702
0.00283888
0.00164042
0.00148676
0.00148632
0.00148728
0.00148683
0.00155259
0.00155256
0.00155544
0.00155541
0.00278265
0.0138212
0.00279143
0.0138752
0.0016366
0.00282598
0.00164
0.00283624
0.047998
0.061918
0.0481265
0.0621331
0.00921382
0.0149226
0.00924808
0.0149802
0.0614812
0.0477609
0.0617094
0.0478967
0.0148063
0.00915127
0.0148672
0.00918748
0.013734
0.00277111
0.0137909
0.00278031
0.00280885
0.00162962
0.00281974
0.00163333
0.0014856
0.00148516
0.00148615
0.00148571
0.00154614
0.00154611
0.00154928
0.00154925
0.00276644
0.0137204
0.00277561
0.0137772
0.00162921
0.00280625
0.00163291
0.00281713
0.0477542
0.0614993
0.04789
0.0617277
0.00914863
0.0148117
0.00918484
0.0148726
0.0610375
0.047503
0.0612783
0.0476458
0.014689
0.00908221
0.014753
0.00912031
0.0136277
0.00275406
0.0136872
0.00276363
0.00278783
0.00162157
0.00279933
0.00162561
0.00148436
0.00148393
0.00148494
0.00148451
0.00153909
0.00153906
0.00154253
0.0015425
0.00274944
0.0136142
0.00275898
0.0136737
0.00162116
0.00278526
0.00162519
0.00279675
0.0474963
0.0610554
0.0476391
0.0612964
0.00907957
0.0146943
0.00911767
0.0147584
0.0605699
0.0472317
0.0608226
0.0473812
0.0145655
0.00900946
0.0146325
0.00904935
0.0135163
0.00273629
0.0135783
0.00274618
0.00276557
0.00161287
0.00277767
0.00161722
0.00148304
0.00148261
0.00148366
0.00148323
0.00153143
0.00153139
0.00153517
0.00153514
0.00273174
0.0135029
0.0027416
0.0135648
0.00161246
0.00276303
0.00161682
0.00277512
0.047225
0.0605876
0.0473745
0.0608405
0.00900684
0.0145707
0.00904672
0.0146378
0.0600805
0.0469481
0.060344
0.0471037
0.0144365
0.00893329
0.0145062
0.00897482
0.0134004
0.00271788
0.0134646
0.00272806
0.00274214
0.0016035
0.0027548
0.00160818
0.00148163
0.00148121
0.00148229
0.00148187
0.00152313
0.0015231
0.00152719
0.00152716
0.00271339
0.0133871
0.00272354
0.0134512
0.0016031
0.00273964
0.00160778
0.00275228
0.0469414
0.060098
0.0470969
0.0603616
0.00893067
0.0144416
0.0089722
0.0145114
0.0595718
0.0466536
0.0598446
0.0468145
0.0143025
0.00885401
0.0143745
0.00889702
0.0132804
0.00269892
0.0133465
0.00270934
0.00271761
0.00159346
0.00273079
0.00159847
0.00148015
0.00147974
0.00148084
0.00148042
0.00151421
0.00151418
0.00151858
0.00151855
0.0026945
0.0132672
0.00270489
0.0133332
0.00159307
0.00271514
0.00159808
0.0027283
0.0466468
0.059589
0.0468077
0.059862
0.0088514
0.0143076
0.0088944
0.0143797
0.059047
0.04635
0.0593276
0.0465152
0.0141645
0.00877209
0.0142384
0.00881633
0.0131572
0.00267954
0.0132247
0.00269014
0.00269208
0.00158278
0.00270572
0.00158811
0.00147858
0.00147818
0.00147931
0.0014789
0.00150467
0.00150464
0.00150935
0.00150931
0.00267519
0.0131441
0.00268575
0.0132116
0.00158239
0.00268964
0.00158772
0.00270327
0.0463432
0.0590641
0.0465084
0.0593447
0.00876949
0.0141695
0.00881372
0.0142434
0.0585102
0.0460394
0.0587964
0.0462079
0.0140234
0.00868806
0.0140987
0.00873325
0.0130316
0.00265988
0.0131002
0.00267058
0.00266567
0.00157147
0.00267972
0.0015771
0.00147694
0.00147655
0.0014777
0.0014773
0.00149452
0.00149448
0.00149949
0.00149946
0.0026556
0.0130187
0.00266626
0.0130872
0.00157109
0.00266327
0.00157672
0.00267729
0.0460326
0.058527
0.0462011
0.0588133
0.00868547
0.0140283
0.00873065
0.0141037
0.0579655
0.0457244
0.0582552
0.0458949
0.0138805
0.0086025
0.0139565
0.00864834
0.0129048
0.00264009
0.0129738
0.0026508
0.00263854
0.00155955
0.00265291
0.00156548
0.00147523
0.00147484
0.00147601
0.00147562
0.00148377
0.00148374
0.00148903
0.001489
0.00263588
0.0128919
0.00264656
0.0129609
0.00155918
0.00263617
0.00156511
0.00265052
0.0457175
0.0579821
0.045888
0.0582719
0.00859992
0.0138853
0.00864576
0.0139614
0.0574176
0.0454074
0.0577084
0.0455786
0.0137368
0.00851606
0.0138131
0.00856223
0.0127776
0.00262031
0.0128466
0.00263098
0.00261083
0.00154708
0.00262544
0.00155328
0.00147344
0.00147305
0.00147425
0.00147386
0.00147246
0.00147244
0.001478
0.00147797
0.00261617
0.0127649
0.0026268
0.0128339
0.00154671
0.00260849
0.00155291
0.00262309
0.0454005
0.057434
0.0455717
0.0577249
0.00851349
0.0137416
0.00855965
0.0138179
0.0568714
0.0450912
0.0571608
0.0452617
0.0135938
0.00842941
0.0136695
0.00847557
0.0126512
0.00260071
0.0127197
0.00261125
0.00258271
0.00153408
0.00259749
0.00154053
0.00147156
0.00147118
0.00147241
0.00147203
0.00146063
0.00146061
0.00146643
0.0014664
0.00259664
0.0126386
0.00260714
0.012707
0.00153372
0.00258042
0.00154017
0.00259518
0.0450843
0.0568875
0.0452548
0.0571771
0.00842685
0.0135985
0.008473
0.0136743
0.0563317
0.0447786
0.0566173
0.044947
0.0134526
0.00834323
0.0135272
0.00838904
0.0125268
0.00258144
0.0125941
0.00259177
0.00255437
0.00152062
0.00256922
0.00152729
0.00146956
0.00146919
0.00147047
0.0014701
0.00144832
0.0014483
0.00145435
0.00145432
0.00257744
0.0125143
0.00258773
0.0125816
0.00152027
0.00255211
0.00152694
0.00256694
0.0447717
0.0563476
0.0449401
0.0566333
0.00834069
0.0134572
0.00838648
0.0135319
0.0558036
0.0444724
0.0560829
0.0446374
0.0133146
0.00825826
0.0133874
0.00830335
0.0124053
0.00256266
0.012471
0.00257271
0.00252599
0.00150676
0.00254082
0.00151362
0.00146748
0.00146712
0.00146842
0.00146806
0.00143558
0.00143556
0.00144181
0.00144178
0.00255873
0.012393
0.00256874
0.0124586
0.00150641
0.00252376
0.00151327
0.00253857
0.0444655
0.0558192
0.0446304
0.0560987
0.00825573
0.0133191
0.00830081
0.013392
0.0552916
0.0441755
0.0555624
0.0443355
0.013181
0.00817518
0.0132515
0.00821921
0.012288
0.00254451
0.0123514
0.0025542
0.00249774
0.00149255
0.00251246
0.00149957
0.00146536
0.001465
0.00146631
0.00146596
0.00142247
0.00142244
0.00142888
0.00142885
0.00254065
0.0122758
0.0025503
0.0123391
0.00149221
0.00249555
0.00149923
0.00251025
0.0441685
0.055307
0.0443286
0.055578
0.00817266
0.0131855
0.00821669
0.013256
0.0547998
0.0438903
0.0550602
0.0440442
0.0130529
0.00809464
0.0131205
0.0081373
0.0121758
0.00252715
0.0122365
0.00253641
0.0024698
0.00147807
0.00248432
0.00148521
0.00146319
0.00146284
0.00146416
0.00146381
0.00140904
0.00140902
0.0014156
0.00141557
0.00252334
0.0121636
0.00253257
0.0122243
0.00147774
0.00246764
0.00148488
0.00248215
0.0438833
0.054815
0.0440372
0.0550755
0.00809213
0.0130573
0.00813478
0.013125
0.0543308
0.0436192
0.0545798
0.0437659
0.0129313
0.00801726
0.0129956
0.00805824
0.0120696
0.00251069
0.0121272
0.00251947
0.00244235
0.00146339
0.00245659
0.00147062
0.001461
0.00146066
0.00146199
0.00146164
0.00139537
0.00139534
0.00140204
0.00140201
0.00250694
0.0120576
0.00251569
0.0121151
0.00146307
0.00244023
0.00147029
0.00245445
0.0436122
0.0543457
0.0437589
0.0545949
0.00801476
0.0129356
0.00805574
0.013
0.0538728
0.0433569
0.0541206
0.0435018
0.0128152
0.00794296
0.0128771
0.00798258
0.0119687
0.00249517
0.0120241
0.00250348
0.0024155
0.00144858
0.00242943
0.00145586
0.00145881
0.00145847
0.00145979
0.00145945
0.00138151
0.00138149
0.00138826
0.00138823
0.00249148
0.0119568
0.00249976
0.0120122
0.00144826
0.0024134
0.00145554
0.00242731
0.0433499
0.0538876
0.0434948
0.0541355
0.00794048
0.0128194
0.00798009
0.0128814
0.0532781
0.0429679
0.0536331
0.0432172
0.0126808
0.00785477
0.0127589
0.00790688
0.0118361
0.00247776
0.0119193
0.00248796
0.0023872
0.00143364
0.00240255
0.001441
0.00145653
0.0014562
0.00145757
0.00145724
0.00136753
0.00136751
0.00137434
0.00137431
0.00247414
0.0118244
0.0024843
0.0119075
0.00143332
0.00238514
0.00144068
0.00240047
0.0429609
0.0532923
0.0432102
0.0536476
0.00785231
0.012685
0.00790441
0.0127631
0.0520963
0.0412487
0.0528077
0.0425061
0.0123538
0.00755972
0.0125731
0.00776766
0.0113004
0.00241865
0.0116802
0.00245969
0.0023249
0.0014166
0.0023664
0.00142575
0.0014527
0.00145239
0.00145493
0.0014546
0.00135301
0.00135299
0.00136039
0.00136036
0.00241524
0.0112893
0.00245613
0.0116687
0.0014163
0.00232294
0.00142543
0.00236437
0.0412416
0.0521097
0.0424991
0.0528216
0.00755729
0.0123577
0.00776521
0.0125772
0.0443973
0.0343049
0.0149962
0.013081
0.0426617
0.0328566
0.0149755
0.0126332
0.00721611
0.00236167
0.00384309
0.00283343
0.00684038
0.00233184
0.0037981
0.00284434
0.00199317
0.00199314
0.0028236
0.00282361
0.0019977
0.00199766
0.0028346
0.00283461
0.0023609
0.00721336
0.00283352
0.0038429
0.0023312
0.00683806
0.00284442
0.0037979
0.034302
0.0444043
0.013081
0.0149966
0.0328541
0.0426677
0.0126332
0.0149758
0.0758576
0.058099
0.0645614
0.0494637
0.07163
0.0548593
0.0613193
0.0469485
0.0178953
0.00344764
0.0136566
0.00277196
0.0165354
0.00324111
0.0127243
0.00267061
0.00156243
0.00156185
0.00165894
0.0016587
0.00155427
0.00155376
0.00165674
0.00165653
0.00344145
0.0178794
0.00276927
0.0136467
0.00323575
0.0165214
0.0026683
0.0127157
0.0580921
0.0758795
0.0494585
0.0645763
0.054853
0.0716489
0.0469439
0.0613322
0.0837272
0.0641522
0.0813859
0.0623543
0.0786539
0.0602871
0.0765956
0.0586993
0.0209813
0.0040242
0.0200724
0.00385007
0.0192523
0.00372516
0.0184632
0.00358053
0.00154233
0.0015414
0.00154363
0.00154281
0.00152904
0.00152824
0.00153195
0.00153124
0.00401475
0.0209597
0.00384169
0.0200527
0.00371705
0.0192332
0.00357334
0.0184459
0.0641437
0.0837572
0.0623464
0.0814129
0.0602792
0.0786796
0.0586921
0.0766188
0.0848732
0.0650271
0.0846217
0.0648359
0.0796174
0.0610328
0.0794153
0.0608747
0.0214065
0.00410327
0.0213185
0.00408807
0.0196105
0.00378939
0.0195384
0.00377734
0.00154341
0.00154243
0.00154301
0.00154204
0.00152941
0.00152856
0.00152915
0.00152831
0.00409328
0.0213838
0.0040782
0.0212961
0.00378083
0.0195905
0.00376887
0.0195186
0.0650183
0.0849054
0.0648272
0.0846532
0.0610247
0.0796449
0.0608666
0.0794422
0.0849272
0.0650733
0.0849524
0.0650894
0.0796471
0.0610651
0.0796743
0.061081
0.0214252
0.00410514
0.021434
0.00410734
0.0196238
0.00379064
0.019632
0.00379252
0.00154338
0.0015424
0.00154346
0.00154247
0.00152938
0.00152854
0.00152941
0.00152857
0.00409513
0.0214024
0.00409733
0.0214112
0.00378208
0.0196038
0.00378396
0.0196119
0.0650646
0.0849597
0.0650806
0.0849849
0.0610571
0.0796748
0.061073
0.079702
0.084859
0.0650303
0.0849216
0.0650735
0.0795787
0.061024
0.079637
0.061063
0.0214031
0.0040993
0.021425
0.00410434
0.0196037
0.00378559
0.019623
0.00378985
0.00154292
0.00154193
0.00154318
0.0015422
0.00152896
0.00152812
0.00152919
0.00152834
0.00408929
0.0213803
0.00409433
0.0214022
0.00377704
0.0195837
0.0037813
0.0196029
0.0650215
0.0848915
0.0650648
0.0849542
0.061016
0.0796065
0.061055
0.0796649
0.0847467
0.0649553
0.0848281
0.065012
0.0794727
0.0609555
0.0795472
0.061006
0.0213653
0.00409051
0.0213939
0.00409679
0.0195698
0.00377798
0.019595
0.00378336
0.00154237
0.00154139
0.00154268
0.0015417
0.00152849
0.00152765
0.00152875
0.00152791
0.00408052
0.0213424
0.00408678
0.0213711
0.00376946
0.0195498
0.00377483
0.019575
0.0649464
0.084779
0.0650032
0.0848605
0.0609475
0.0795005
0.0609981
0.079575
0.0846102
0.0648637
0.0847029
0.0649279
0.0793447
0.0608728
0.0794298
0.0609299
0.02132
0.00408016
0.0213518
0.00408708
0.0195292
0.00376887
0.0195574
0.00377487
0.0015417
0.00154072
0.00154203
0.00154105
0.00152789
0.00152705
0.00152817
0.00152734
0.00407019
0.0212971
0.00407709
0.021329
0.00376038
0.0195092
0.00376637
0.0195374
0.0648547
0.0846423
0.064919
0.0847352
0.0608648
0.0793723
0.0609219
0.0794575
0.0844545
0.0647601
0.0845569
0.0648302
0.0791981
0.0607796
0.0792926
0.0608419
0.0212701
0.00406955
0.0213042
0.00407666
0.019484
0.00375949
0.0195145
0.00376574
0.00154108
0.00154011
0.00154142
0.00154045
0.00152734
0.00152651
0.00152763
0.0015268
0.00405961
0.0212472
0.0040667
0.0212813
0.00375104
0.0194641
0.00375726
0.0194946
0.0647511
0.0844865
0.0648213
0.084589
0.0607715
0.0792256
0.0608339
0.0793202
0.084282
0.0646471
0.0843932
0.0647222
0.079034
0.0606772
0.0791377
0.0607444
0.0212164
0.00405792
0.0212525
0.00406547
0.0194351
0.00374908
0.0194675
0.00375575
0.00154036
0.00153939
0.00154072
0.00153975
0.00152668
0.00152586
0.001527
0.00152617
0.00404801
0.0211936
0.00405554
0.0212296
0.00374064
0.0194151
0.0037473
0.0194476
0.0646381
0.0843139
0.0647131
0.0844251
0.0606691
0.0790614
0.0607363
0.0791652
0.0840916
0.0645259
0.0842123
0.0646052
0.0788509
0.0605653
0.0789646
0.0606375
0.0211589
0.00404608
0.0211971
0.00405386
0.0193819
0.00373845
0.0194167
0.00374537
0.00153969
0.00153873
0.00154006
0.00153909
0.00152609
0.00152526
0.00152641
0.00152558
0.00403621
0.0211361
0.00404396
0.0211743
0.00373003
0.019362
0.00373693
0.0193967
0.0645168
0.0841233
0.0645961
0.0842441
0.0605571
0.0788781
0.0606294
0.0789919
0.0838815
0.0643948
0.0840126
0.0644796
0.0786473
0.0604423
0.078772
0.0605208
0.0210972
0.00403309
0.0211377
0.00404139
0.0193242
0.00372662
0.0193615
0.00373407
0.00153892
0.00153796
0.00153931
0.00153835
0.00152538
0.00152456
0.00152572
0.0015249
0.00402325
0.0210745
0.00403153
0.0211149
0.00371824
0.0193042
0.00372566
0.0193415
0.0643857
0.083913
0.0644705
0.0840442
0.0604341
0.0786744
0.0605126
0.0787991
0.0836497
0.0642538
0.0837924
0.0643439
0.0784219
0.0603055
0.0785577
0.0603912
0.0210307
0.00401968
0.0210739
0.00402832
0.0192612
0.00371441
0.0193013
0.00372219
0.0015382
0.00153725
0.00153859
0.00153764
0.00152472
0.0015239
0.00152507
0.00152425
0.0040099
0.021008
0.00401851
0.0210511
0.00370607
0.0192414
0.00371382
0.0192814
0.0642447
0.0836811
0.0643348
0.083824
0.0602972
0.0784488
0.060383
0.0785847
0.083394
0.0641003
0.0835492
0.0641974
0.0781742
0.0601561
0.0783217
0.0602482
0.0209589
0.00400498
0.0210049
0.0040142
0.0191931
0.00370093
0.0192359
0.00370926
0.00153736
0.00153642
0.00153779
0.00153684
0.00152396
0.00152315
0.00152433
0.00152352
0.00399525
0.0209362
0.00400444
0.0209822
0.00369263
0.0191733
0.00370094
0.019216
0.0640912
0.0834254
0.0641882
0.0835807
0.0601478
0.078201
0.0602399
0.0783486
0.0831132
0.0639325
0.0832816
0.0640371
0.0779015
0.0599934
0.0780622
0.0600926
0.0208813
0.00398979
0.0209304
0.00399934
0.0191192
0.00368695
0.0191651
0.00369563
0.00153659
0.00153565
0.00153699
0.00153605
0.00152325
0.00152245
0.00152361
0.00152281
0.00398012
0.0208588
0.00398963
0.0209078
0.0036787
0.0190994
0.00368735
0.0191453
0.0639233
0.0831444
0.064028
0.0833129
0.0599851
0.0779281
0.0600844
0.078089
0.0828064
0.06375
0.0829883
0.0638624
0.0776018
0.0598157
0.0777765
0.0599229
0.0207979
0.00397362
0.0208501
0.00398371
0.0190391
0.00367185
0.0190882
0.00368114
0.00153579
0.00153486
0.00153622
0.00153529
0.00152249
0.00152169
0.00152289
0.00152209
0.003964
0.0207754
0.00397406
0.0208275
0.00366366
0.0190194
0.00367291
0.0190685
0.0637409
0.0828374
0.0638532
0.0830195
0.0598074
0.0776284
0.0599146
0.0778032
0.0824717
0.063552
0.0826681
0.0636725
0.0772746
0.0596203
0.0774633
0.0597368
0.0207083
0.00395634
0.0207637
0.00396701
0.0189526
0.00365569
0.019005
0.0036655
0.00153493
0.001534
0.00153539
0.00153446
0.00152166
0.00152087
0.00152209
0.0015213
0.00394679
0.0206859
0.00395742
0.0207412
0.00364755
0.018933
0.00365733
0.0189853
0.0635428
0.0825025
0.0636633
0.0826991
0.059612
0.077301
0.0597285
0.0774898
0.0821099
0.0633393
0.0823201
0.0634673
0.0769201
0.0594094
0.0771228
0.0595334
0.0206125
0.00393799
0.020671
0.00394919
0.0188599
0.0036385
0.0189155
0.00364883
0.00153401
0.00153309
0.0015345
0.00153357
0.00152079
0.00152
0.00152124
0.00152045
0.0039285
0.0205901
0.00393966
0.0206486
0.00363042
0.0188404
0.00364072
0.0188959
0.0633301
0.0821405
0.0634581
0.0823509
0.059401
0.0769463
0.0595251
0.0771491
0.0817182
0.0631101
0.0819438
0.0632466
0.0765365
0.0591828
0.0767541
0.059315
0.0205102
0.0039186
0.0205721
0.00393033
0.0187608
0.00362029
0.0188197
0.00363115
0.00153306
0.00153215
0.00153356
0.00153265
0.00151988
0.0015191
0.00152034
0.00151956
0.00390918
0.0204879
0.00392087
0.0205498
0.00361228
0.0187413
0.0036231
0.0188001
0.0631009
0.0817486
0.0632374
0.0819744
0.0591744
0.0765625
0.0593066
0.0767802
0.0812964
0.0628645
0.0815374
0.0630095
0.0761234
0.05894
0.0763561
0.0590805
0.0204014
0.00389817
0.0204667
0.00391042
0.0186551
0.00360106
0.0187173
0.00361243
0.00153207
0.00153117
0.00153259
0.00153169
0.00151894
0.00151817
0.00151942
0.00151865
0.00388883
0.0203792
0.00390103
0.0204444
0.00359311
0.0186357
0.00360445
0.0186979
0.0628552
0.0813265
0.0630002
0.0815678
0.0589316
0.0761491
0.0590721
0.076382
0.080844
0.0626021
0.0811006
0.0627557
0.0756804
0.0586811
0.0759282
0.0588299
0.0202859
0.00387671
0.0203546
0.00388948
0.0185429
0.00358081
0.0186084
0.00359269
0.00153107
0.00153017
0.00153159
0.0015307
0.00151796
0.0015172
0.00151846
0.00151769
0.00386744
0.0202638
0.00388017
0.0203324
0.00357294
0.0185236
0.00358478
0.0185891
0.0625928
0.0808739
0.0627464
0.0811307
0.0586727
0.0757059
0.0588214
0.0759539
0.0803614
0.062323
0.0806333
0.0624851
0.0752079
0.058406
0.0754706
0.058563
0.0201636
0.0038542
0.0202358
0.00386749
0.0184241
0.00355956
0.0184929
0.00357193
0.00153003
0.00152915
0.00153057
0.00152969
0.00151696
0.00151621
0.00151747
0.00151671
0.00384502
0.0201416
0.00385826
0.0202137
0.00355176
0.0184049
0.00356409
0.0184737
0.0623136
0.080391
0.0624758
0.0806631
0.0583976
0.0752332
0.0585545
0.0754961
0.0798493
0.0620277
0.0801361
0.0621981
0.0747069
0.0581153
0.0749839
0.0582802
0.0200349
0.00383073
0.0201103
0.00384449
0.0182991
0.00353737
0.018371
0.00355019
0.00152899
0.00152811
0.00152953
0.00152865
0.00151593
0.00151519
0.00151645
0.00151571
0.00382164
0.020013
0.00383535
0.0200884
0.00352965
0.01828
0.00354243
0.0183519
0.0620183
0.0798787
0.0621887
0.0801656
0.0581068
0.074732
0.0582717
0.0750092
0.0793093
0.0617168
0.0796101
0.0618951
0.074179
0.0578098
0.0744695
0.0579821
0.0199
0.00380636
0.0199785
0.00382055
0.0181681
0.00351431
0.018243
0.00352754
0.00152793
0.00152707
0.00152848
0.00152761
0.00151489
0.00151415
0.00151542
0.00151468
0.00379736
0.0198783
0.0038115
0.0199567
0.00350668
0.0181491
0.00351987
0.018224
0.0617074
0.0793383
0.0618856
0.0796393
0.0578012
0.0742037
0.0579736
0.0744944
0.078743
0.0613912
0.0790569
0.0615769
0.0736259
0.0574902
0.0739289
0.0576696
0.0197593
0.00378113
0.0198407
0.00379574
0.0180316
0.00349046
0.0181092
0.00350407
0.00152687
0.00152601
0.00152742
0.00152656
0.00151383
0.00151311
0.00151436
0.00151364
0.00377223
0.0197377
0.00378678
0.019819
0.00348292
0.0180128
0.00349648
0.0180903
0.0613818
0.0787717
0.0615675
0.0790857
0.0574817
0.0736504
0.057661
0.0739535
0.0781529
0.061052
0.0784785
0.0612445
0.0730504
0.057158
0.0733643
0.0573436
0.019613
0.0037551
0.0196972
0.00377008
0.0178901
0.00346592
0.0179702
0.00347984
0.0015258
0.00152496
0.00152635
0.0015255
0.00151277
0.00151206
0.0015133
0.00151258
0.0037463
0.0195916
0.00376122
0.0196756
0.00345848
0.0178714
0.00347234
0.0179514
0.0610425
0.0781812
0.061235
0.0785071
0.0571494
0.0730745
0.057335
0.0733887
0.0775425
0.0607012
0.0778779
0.0608994
0.0724559
0.056815
0.072779
0.0570059
0.0194622
0.00372845
0.0195486
0.0037437
0.0177446
0.00344085
0.0178265
0.00345499
0.00152475
0.00152392
0.00152529
0.00152445
0.00151171
0.001511
0.00151224
0.00151153
0.00371975
0.0194409
0.00373494
0.0195271
0.0034335
0.017726
0.00344759
0.0178079
0.0606916
0.0775705
0.0608898
0.0779061
0.0568064
0.0724798
0.0569972
0.072803
0.0769162
0.0603411
0.0772591
0.0605437
0.0718468
0.0564638
0.0721768
0.0566585
0.0193079
0.0037014
0.0193959
0.00371679
0.0175959
0.00341544
0.0176793
0.0034297
0.00152371
0.0015229
0.00152424
0.00152342
0.00151065
0.00150996
0.00151117
0.00151048
0.0036928
0.0192867
0.00370814
0.0193746
0.00340819
0.0175775
0.00342239
0.0176607
0.0603315
0.0769438
0.0605341
0.077287
0.0564551
0.0718704
0.0566499
0.0722005
0.0762789
0.0599745
0.0766269
0.0601801
0.0712279
0.0561069
0.0715623
0.0563042
0.0191513
0.00367414
0.0192403
0.0036896
0.0174453
0.00338988
0.0175295
0.00340416
0.00152271
0.0015219
0.00152322
0.00152241
0.00150961
0.00150893
0.00151012
0.00150944
0.00366564
0.0191302
0.00368104
0.0192191
0.00338272
0.017427
0.00339696
0.0175111
0.0599648
0.0763062
0.0601705
0.0766544
0.0560982
0.0712511
0.0562955
0.0715858
0.0756357
0.059604
0.0759861
0.0598114
0.0706042
0.055747
0.0709405
0.0559456
0.0189935
0.00364687
0.0190829
0.00366228
0.017294
0.00336436
0.0173784
0.00337857
0.00152174
0.00152094
0.00152223
0.00152142
0.00150859
0.00150792
0.00150909
0.00150841
0.00363848
0.0189726
0.00365383
0.0190619
0.0033573
0.0172758
0.00337146
0.0173602
0.0595944
0.0756626
0.0598017
0.0760133
0.0557383
0.0706271
0.0559369
0.0709636
0.074992
0.0592329
0.0753421
0.0594403
0.0699812
0.0553873
0.0703165
0.0555855
0.0188358
0.00361981
0.0189251
0.00363506
0.0171431
0.00333909
0.0172271
0.00335313
0.00152081
0.00152002
0.00152127
0.00152048
0.00150762
0.00150696
0.00150808
0.00150742
0.00361153
0.0188151
0.00362672
0.0189042
0.00333213
0.0171251
0.00334612
0.017209
0.0592232
0.0750185
0.0594306
0.0753688
0.0553785
0.0700038
0.0555767
0.0703393
0.0743537
0.0588642
0.0747005
0.0590701
0.0693645
0.0550308
0.0696961
0.0552271
0.0186796
0.0035932
0.018768
0.00360817
0.0169941
0.00331429
0.017077
0.00332804
0.00151993
0.00151915
0.00152036
0.00151957
0.00150672