/*--------------------------------*- C++ -*----------------------------------*\
  =========                 |
  \\      /  F ield         | OpenFOAM: The Open Source CFD Toolbox
   \\    /   O peration     | Website:  https://openfoam.org
    \\  /    A nd           | Version:  9
     \\/     M anipulation  |
\*---------------------------------------------------------------------------*/
FoamFile
{
    format      ascii;
    class       volScalarField;
    location    "0.8";
    object      nut;
}
// * * * * * * * * * * * * * * * * * * * * * * * * * * * * * * * * * * * * * //

dimensions      [0 2 -1 0 0 0 0];

internalField   nonuniform List<scalar> 
36360
(
0.0010122
0.000832431
0.000432075
0.000405439
0.000254409
0.000202467
0.000190792
0.000174551
0.000282064
0.0001616
0.000196856
0.000159535
0.000147394
0.000139493
0.000162746
0.00016207
0.000147635
0.000147633
0.000158483
0.000158484
0.000138904
0.000138904
0.00016203
0.00016203
0.00016157
0.000282027
0.000159537
0.000196844
0.000139492
0.000147389
0.00016207
0.000162746
0.000832393
0.00101231
0.000405431
0.000432092
0.000202461
0.00025442
0.000174551
0.000190793
0.00161777
0.00131066
0.0014026
0.00113584
0.000352517
0.000274898
0.000319633
0.000249265
0.000555218
0.000201314
0.000447597
0.000181163
0.0001555
0.000123096
0.000149923
0.00012763
0.000155192
0.000155176
0.00015005
0.000150042
0.000120411
0.00012041
0.00012588
0.00012588
0.000201179
0.00055492
0.000181155
0.00044741
0.000123085
0.000155446
0.000127624
0.000149896
0.00131059
0.00161811
0.00113578
0.00140283
0.000274866
0.000352567
0.000249243
0.000319667
0.00176261
0.00143105
0.00172091
0.00139622
0.000371207
0.000291964
0.00036612
0.000286914
0.000631474
0.000215875
0.000609644
0.000211515
0.000161425
0.000121571
0.000159661
0.000121836
0.000158532
0.000158513
0.00015777
0.000157753
0.00011817
0.000118169
0.000118626
0.000118625
0.000215705
0.000631069
0.000211366
0.000609277
0.000121555
0.00016135
0.000121822
0.000159593
0.00143097
0.00176307
0.00139615
0.00172132
0.000291925
0.000371273
0.000286877
0.000366181
0.00178066
0.00144662
0.00177715
0.00144345
0.000373117
0.000294274
0.000372829
0.000293807
0.000640814
0.000217623
0.000639008
0.000217308
0.000162207
0.000121516
0.000162064
0.000121528
0.000158681
0.000158661
0.000158701
0.000158681
0.000118046
0.000118045
0.000118067
0.000118066
0.000217445
0.00064039
0.000217131
0.000638587
0.000121498
0.000162129
0.000121511
0.000161987
0.00144654
0.00178116
0.00144336
0.00177763
0.000294235
0.000373187
0.000293768
0.000372898
0.00178072
0.001447
0.00178136
0.00144739
0.000373017
0.000294315
0.000373145
0.000294387
0.000640994
0.000217582
0.000641209
0.000217645
0.000162202
0.000121488
0.000162234
0.000121496
0.000158658
0.000158638
0.000158687
0.000158667
0.000118029
0.000118027
0.000118025
0.000118024
0.000217404
0.000640571
0.000217466
0.000640786
0.000121471
0.000162124
0.000121479
0.000162157
0.00144692
0.00178121
0.00144731
0.00178186
0.000294276
0.000373087
0.000294348
0.000373215
0.00177936
0.00144596
0.00178042
0.00144682
0.000372743
0.000294071
0.000372936
0.000294252
0.000640364
0.000217363
0.000640896
0.000217509
0.000162102
0.000121453
0.000162178
0.000121477
0.000158605
0.000158585
0.000158647
0.000158627
0.000118002
0.000118001
0.000118019
0.000118017
0.000217185
0.000639943
0.000217331
0.000640474
0.000121436
0.000162025
0.00012146
0.000162101
0.00144588
0.00177986
0.00144674
0.00178092
0.000294033
0.000372814
0.000294213
0.000373006
0.00177751
0.00144444
0.00177877
0.00144549
0.000372398
0.000293721
0.000372622
0.000293947
0.000639362
0.000217104
0.000640058
0.000217274
0.000161954
0.000121401
0.000162052
0.000121426
0.000158554
0.000158534
0.000158605
0.000158585
0.000117963
0.000117961
0.000117977
0.000117976
0.000216927
0.000638942
0.000217097
0.000639638
0.000121384
0.000161877
0.000121409
0.000161975
0.00144436
0.00177801
0.00144541
0.00177927
0.000293683
0.000372469
0.000293908
0.000372693
0.00177536
0.0014427
0.00177677
0.00144384
0.000372006
0.000293324
0.000372254
0.000293572
0.00063819
0.000216776
0.000638963
0.000216969
0.000161782
0.000121346
0.000161892
0.000121373
0.000158497
0.000158478
0.000158547
0.000158528
0.000117924
0.000117922
0.00011794
0.000117939
0.000216601
0.000637771
0.000216793
0.000638544
0.000121329
0.000161706
0.000121356
0.000161815
0.00144262
0.00177585
0.00144376
0.00177727
0.000293286
0.000372077
0.000293534
0.000372325
0.00177292
0.00144076
0.00177448
0.001442
0.00037157
0.000292891
0.000371841
0.000293157
0.00063689
0.00021647
0.000637724
0.000216666
0.00016159
0.000121284
0.00016171
0.000121315
0.000158446
0.000158426
0.000158499
0.000158479
0.000117876
0.000117875
0.000117897
0.000117895
0.000216296
0.000636471
0.000216491
0.000637305
0.000121267
0.000161514
0.000121298
0.000161634
0.00144068
0.00177341
0.00144192
0.00177498
0.000292852
0.000371641
0.000293118
0.000371913
0.0017702
0.00143864
0.00177191
0.00143998
0.000371089
0.000292414
0.000371385
0.000292705
0.00063547
0.000216097
0.000636367
0.000216314
0.000161379
0.000121212
0.000161509
0.000121248
0.000158379
0.00015836
0.000158436
0.000158416
0.000117821
0.00011782
0.000117845
0.000117844
0.000215923
0.000635051
0.000216139
0.000635948
0.000121195
0.000161302
0.000121231
0.000161433
0.00143855
0.00177069
0.0014399
0.00177241
0.000292375
0.00037116
0.000292666
0.000371456
0.00176717
0.00143631
0.00176905
0.00143776
0.00037056
0.000291899
0.000370883
0.00029221
0.000633925
0.000215743
0.00063489
0.000215965
0.000161149
0.000121132
0.000161289
0.000121173
0.000158318
0.000158299
0.000158377
0.000158357
0.000117757
0.000117756
0.000117786
0.000117784
0.000215569
0.000633504
0.000215791
0.000634469
0.000121116
0.000161072
0.000121156
0.000161212
0.00143622
0.00176766
0.00143768
0.00176954
0.00029186
0.00037063
0.000292171
0.000370953
0.00176382
0.00143376
0.00176587
0.00143533
0.000369978
0.000291342
0.00037033
0.000291675
0.000632242
0.000215318
0.000633281
0.000215561
0.000160897
0.00012104
0.000161048
0.000121086
0.00015824
0.000158221
0.000158302
0.000158283
0.000117682
0.000117681
0.000117716
0.000117715
0.000215144
0.00063182
0.000215387
0.000632859
0.000121023
0.00016082
0.000121069
0.000160971
0.00143367
0.00176431
0.00143524
0.00176636
0.000291302
0.000370047
0.000291635
0.000370399
0.00176011
0.00143096
0.00176235
0.00143266
0.000369336
0.00029074
0.000369719
0.000291096
0.000630407
0.00021491
0.000631527
0.000215158
0.000160621
0.000120937
0.000160785
0.000120989
0.00015817
0.00015815
0.000158231
0.000158212
0.000117597
0.000117595
0.000117636
0.000117635
0.000214737
0.000629985
0.000214985
0.000631105
0.000120921
0.000160544
0.000120972
0.000160708
0.00143087
0.0017606
0.00143258
0.00176284
0.0002907
0.000369404
0.000291056
0.000369788
0.00175602
0.00142789
0.00175846
0.00142974
0.000368629
0.000290086
0.000369046
0.000290469
0.000628406
0.000214444
0.000629613
0.00021472
0.00016032
0.000120821
0.000160497
0.000120879
0.000158085
0.000158066
0.000158155
0.000158136
0.000117499
0.000117497
0.000117544
0.000117543
0.000214273
0.000627985
0.000214548
0.000629191
0.000120804
0.000160243
0.000120862
0.00016042
0.0014278
0.0017565
0.00142965
0.00175894
0.000290045
0.000368698
0.000290429
0.000369114
0.00175152
0.00142454
0.00175417
0.00142653
0.000367855
0.000289376
0.000368306
0.000289787
0.000626227
0.000213939
0.000627528
0.000214235
0.000159992
0.000120689
0.000160183
0.000120755
0.000157991
0.000157972
0.000158065
0.000158045
0.000117387
0.000117385
0.000117439
0.000117438
0.000213769
0.000625807
0.000214064
0.000627107
0.000120672
0.000159916
0.000120738
0.000160107
0.00142445
0.001752
0.00142645
0.00175466
0.000289336
0.000367923
0.000289747
0.000368375
0.00174659
0.00142088
0.00174947
0.00142304
0.000367008
0.000288613
0.000367496
0.000289051
0.000623857
0.00021339
0.000625258
0.000213709
0.000159637
0.000120541
0.000159842
0.000120615
0.000157886
0.000157867
0.000157965
0.000157946
0.00011726
0.000117259
0.00011732
0.000117319
0.000213221
0.000623438
0.000213539
0.000624838
0.000120525
0.000159562
0.000120599
0.000159766
0.00142079
0.00174707
0.00142295
0.00174995
0.000288573
0.000367075
0.000289011
0.000367564
0.00174121
0.00141692
0.00174433
0.00141924
0.000366083
0.0002878
0.000366611
0.000288262
0.000621282
0.000212798
0.000622791
0.000213139
0.000159253
0.000120376
0.000159473
0.000120459
0.00015777
0.000157751
0.000157856
0.000157837
0.000117117
0.000117116
0.000117185
0.000117184
0.000212631
0.000620864
0.000212971
0.000622372
0.00012036
0.000159178
0.000120443
0.000159398
0.00141683
0.00174169
0.00141915
0.00174481
0.00028776
0.00036615
0.000288222
0.000366679
0.00173533
0.0014126
0.00173871
0.00141511
0.000365077
0.000286948
0.000365646
0.000287428
0.000618482
0.000212163
0.000620107
0.000212526
0.00015884
0.000120192
0.000159075
0.000120285
0.000157646
0.000157627
0.000157735
0.000157717
0.000116957
0.000116956
0.000117034
0.000117033
0.000211997
0.000618065
0.000212359
0.000619689
0.000120176
0.000158765
0.000120268
0.000159
0.00141251
0.0017358
0.00141502
0.00173918
0.000286907
0.000365145
0.000287388
0.000365714
0.00172892
0.00140784
0.00173257
0.00141058
0.000363989
0.000286074
0.0003646
0.000286561
0.000615448
0.000211485
0.000617193
0.00021187
0.000158396
0.000119989
0.000158646
0.000120091
0.000157512
0.000157493
0.000157606
0.000157587
0.000116778
0.000116777
0.000116864
0.000116863
0.000211321
0.000615032
0.000211705
0.000616776
0.000119973
0.000158321
0.000120075
0.000158572
0.00140775
0.00172939
0.00141049
0.00173304
0.000286033
0.000364056
0.000286521
0.000364666
0.00172201
0.00140259
0.00172592
0.00140558
0.000362816
0.000285188
0.000363469
0.000285685
0.000612191
0.000210765
0.000614045
0.000211171
0.000157917
0.000119763
0.000158185
0.000119876
0.000157369
0.00015735
0.000157467
0.000157448
0.000116579
0.000116578
0.000116675
0.000116674
0.000210602
0.000611776
0.000211007
0.00061363
0.000119748
0.000157843
0.000119861
0.000158111
0.0014025
0.00172248
0.00140548
0.00172638
0.000285147
0.000362882
0.000285644
0.000363535
0.0017146
0.00139698
0.00171877
0.00140014
0.000361556
0.000284245
0.000362252
0.000284773
0.000608722
0.000210002
0.000610682
0.000210429
0.000157402
0.000119516
0.000157688
0.00011964
0.000157216
0.000157197
0.000157318
0.000157299
0.000116359
0.000116358
0.000116466
0.000116465
0.000209842
0.000608309
0.000210267
0.000610268
0.0001195
0.000157328
0.000119624
0.000157615
0.00139688
0.00171507
0.00140005
0.00171923
0.000284204
0.000361622
0.000284732
0.000362319
0.0017067
0.001391
0.00171112
0.00139435
0.000360209
0.000283237
0.000360949
0.000283797
0.000605043
0.000209199
0.000607107
0.000209645
0.000156849
0.000119245
0.000157154
0.000119381
0.000157054
0.000157035
0.000157159
0.00015714
0.000116117
0.000116115
0.000116235
0.000116233
0.000209041
0.000604631
0.000209486
0.000606694
0.000119229
0.000156776
0.000119365
0.000157081
0.0013909
0.00170716
0.00139425
0.00171158
0.000283196
0.000360275
0.000283756
0.000361015
0.00169831
0.00138467
0.00170297
0.0013882
0.000358779
0.000282165
0.00035956
0.000282757
0.00060116
0.000208358
0.000603324
0.000208821
0.000156259
0.000118949
0.000156582
0.000119097
0.000156882
0.000156864
0.00015699
0.000156972
0.000115851
0.00011585
0.000115981
0.000115979
0.000208201
0.00060075
0.000208664
0.000602913
0.000118934
0.000156187
0.000119082
0.00015651
0.00138457
0.00169877
0.0013881
0.00170343
0.000282124
0.000358843
0.000282716
0.000359625
0.00168947
0.00137799
0.00169436
0.0013817
0.000357267
0.000281031
0.000358089
0.000281654
0.000597086
0.00020748
0.000599343
0.00020796
0.000155632
0.000118629
0.000155973
0.000118789
0.000156703
0.000156684
0.000156813
0.000156795
0.000115562
0.000115561
0.000115703
0.000115702
0.000207326
0.000596678
0.000207805
0.000598934
0.000118613
0.00015556
0.000118774
0.000155901
0.00137789
0.00168992
0.00138159
0.00169481
0.00028099
0.000357331
0.000281613
0.000358153
0.00168019
0.001371
0.0016853
0.00137486
0.00035568
0.000279839
0.000356539
0.00028049
0.000592836
0.000206571
0.000595179
0.000207065
0.000154969
0.000118283
0.000155327
0.000118456
0.000156516
0.000156497
0.000156628
0.00015661
0.000115248
0.000115247
0.000115402
0.0001154
0.000206419
0.00059243
0.000206912
0.000594771
0.000118268
0.000154898
0.000118441
0.000155256
0.0013709
0.00168064
0.00137476
0.00168575
0.000279799
0.000355744
0.000280449
0.000356603
0.00167053
0.00136372
0.00167583
0.00136773
0.000354026
0.000278594
0.000354917
0.00027927
0.00058843
0.000205634
0.000590847
0.00020614
0.000154272
0.000117911
0.000154647
0.000118097
0.000156322
0.000156304
0.000156436
0.000156418
0.00011491
0.000114908
0.000115076
0.000115074
0.000205485
0.000588026
0.000205989
0.000590441
0.000117896
0.000154201
0.000118082
0.000154576
0.00136361
0.00167097
0.00136762
0.00167627
0.000278553
0.000354089
0.000279229
0.00035498
0.00166054
0.00135619
0.001666
0.00136032
0.000352313
0.000277301
0.000353232
0.000278
0.000583895
0.000204676
0.000586372
0.000205191
0.000153543
0.000117514
0.000153933
0.000117713
0.000156124
0.000156106
0.000156238
0.00015622
0.000114546
0.000114545
0.000114725
0.000114723
0.000204529
0.000583493
0.000205042
0.000585968
0.0001175
0.000153473
0.000117698
0.000153863
0.00135609
0.00166097
0.00136022
0.00166644
0.000277259
0.000352375
0.000277959
0.000353294
0.00165029
0.00134848
0.00165588
0.0013527
0.000350554
0.000275968
0.000351494
0.000276685
0.000579265
0.000203704
0.000581784
0.000204223
0.000152785
0.000117093
0.000153189
0.000117303
0.000155923
0.000155905
0.000156036
0.000156019
0.000114159
0.000114158
0.000114349
0.000114348
0.000203559
0.000578865
0.000204078
0.000581383
0.000117078
0.000152716
0.000117289
0.000153119
0.00134837
0.00165072
0.00135259
0.00165631
0.000275926
0.000350615
0.000276644
0.000351556
0.00163986
0.00134063
0.00164554
0.00134492
0.000348762
0.000274604
0.000349717
0.000275336
0.000574575
0.000202724
0.000577119
0.000203245
0.000152003
0.000116647
0.000152418
0.000116869
0.000155719
0.000155702
0.000155831
0.000155814
0.000113747
0.000113746
0.000113949
0.000113948
0.000202582
0.000574177
0.000203102
0.00057672
0.000116633
0.000151935
0.000116855
0.000152349
0.00134052
0.00164028
0.00134481
0.00164596
0.000274563
0.000348823
0.000275295
0.000349778
0.00162934
0.00133272
0.00163506
0.00133703
0.000346951
0.000273219
0.000347914
0.00027396
0.000569863
0.000201745
0.000572412
0.000202264
0.0001512
0.000116179
0.000151624
0.000116412
0.000155515
0.000155498
0.000155625
0.000155608
0.000113312
0.000113311
0.000113525
0.000113524
0.000201606
0.000569468
0.000202123
0.000572016
0.000116165
0.000151133
0.000116398
0.000151556
0.00133261
0.00162976
0.00133692
0.00163548
0.000273178
0.000347012
0.000273919
0.000347975
0.00161882
0.00132481
0.00162453
0.00132912
0.000345139
0.000271824
0.000346101
0.000272568
0.00056517
0.000200775
0.000567704
0.000201287
0.000150382
0.000115689
0.000150813
0.000115932
0.000155307
0.00015529
0.000155417
0.0001554
0.000112855
0.000112854
0.000113079
0.000113078
0.000200637
0.000564777
0.000201149
0.00056731
0.000115675
0.000150314
0.000115918
0.000150745
0.00132469
0.00161923
0.001329
0.00162495
0.000271783
0.000345199
0.000272527
0.000346161
0.00160839
0.00131696
0.00161405
0.00132123
0.000343341
0.000270429
0.000344293
0.000271172
0.000560537
0.00019982
0.000563035
0.000200322
0.000149552
0.000115179
0.000149987
0.000115432
0.000155091
0.000155074
0.000155203
0.000155187
0.000112378
0.000112377
0.000112612
0.000112611
0.000199685
0.000560147
0.000200186
0.000562644
0.000115166
0.000149485
0.000115418
0.00014992
0.00131685
0.0016088
0.00132112
0.00161446
0.000270388
0.0003434
0.00027113
0.000344353
0.00159815
0.00130927
0.00160371
0.00131346
0.000341575
0.000269047
0.000342509
0.000269782
0.000556009
0.000198889
0.000558449
0.000199377
0.000148716
0.000114652
0.000149153
0.000114913
0.000154874
0.000154858
0.000154983
0.000154967
0.000111882
0.000111881
0.000112125
0.000112124
0.000198756
0.000555621
0.000199244
0.00055806
0.000114638
0.00014865
0.000114899
0.000149087
0.00130915
0.00159855
0.00131334
0.00160411
0.000269006
0.000341633
0.00026974
0.000342568
0.00158819
0.00130178
0.0015936
0.00130586
0.000339856
0.000267689
0.000340764
0.00026841
0.000551624
0.000197988
0.000553988
0.000198459
0.00014788
0.000114109
0.000148316
0.000114377
0.000154659
0.000154643
0.000154768
0.000154752
0.000111369
0.000111368
0.00011162
0.000111619
0.000197858
0.000551239
0.000198328
0.000553601
0.000114096
0.000147815
0.000114364
0.000148251
0.00130166
0.00158858
0.00130574
0.001594
0.000267647
0.000339914
0.000268369
0.000340823
0.00157858
0.00129459
0.00158381
0.00129852
0.0003382
0.000266365
0.000339075
0.000267067
0.000547423
0.000197126
0.00054969
0.000197576
0.000147048
0.000113553
0.000147481
0.000113827
0.00015445
0.000154434
0.000154556
0.00015454
0.000110841
0.00011084
0.000111099
0.000111098
0.000196998
0.000547041
0.000197447
0.000549306
0.00011354
0.000146984
0.000113814
0.000147416
0.00129446
0.00157897
0.0012984
0.00158421
0.000266324
0.000338257
0.000267026
0.000339133
0.00156936
0.00128773
0.00157441
0.00129149
0.000336619
0.000265087
0.000337456
0.000265765
0.000543442
0.000196308
0.000545596
0.000196735
0.000146227
0.000112987
0.000146654
0.000113266
0.000154249
0.000154234
0.000154352
0.000154336
0.000110302
0.0001103
0.000110565
0.000110564
0.000196182
0.000543061
0.000196607
0.000545214
0.000112974
0.000146163
0.000113253
0.000146589
0.0012876
0.00156974
0.00129137
0.0015748
0.000265046
0.000336675
0.000265724
0.000337513
0.00156003
0.00128093
0.0015653
0.00128478
0.000335102
0.000263855
0.000335913
0.000264513
0.000539626
0.000195534
0.000541726
0.00019594
0.000145419
0.000112412
0.000145839
0.000112695
0.000154058
0.000154042
0.000154157
0.000154141
0.000109752
0.000109751
0.00011002
0.000110019
0.00019541
0.000539248
0.000195814
0.000541346
0.0001124
0.000145355
0.000112682
0.000145775
0.00128081
0.00156041
0.00128465
0.00156569
0.000263813
0.000335158
0.000264472
0.000335969
0.00154566
0.00126991
0.00155472
0.00127708
0.000333337
0.000262381
0.000334365
0.000263254
0.000534344
0.000194646
0.000537682
0.000195159
0.000144562
0.00011183
0.000145028
0.000112117
0.000153871
0.000153856
0.000153969
0.000153954
0.000109194
0.000109193
0.000109466
0.000109465
0.000194524
0.000533971
0.000195036
0.000537305
0.000111818
0.000144499
0.000112105
0.000144965
0.00126979
0.00154602
0.00127695
0.00155509
0.00026234
0.000333391
0.000263213
0.00033442
0.0015052
0.00122752
0.00153162
0.00125687
0.000328998
0.000257392
0.000331913
0.000260918
0.000514994
0.000192047
0.000528169
0.000193756
0.000142651
0.000111161
0.000143927
0.000111521
0.00015362
0.000153605
0.000153759
0.000153744
0.000108612
0.000108611
0.000108908
0.000108907
0.000191931
0.000514632
0.000193637
0.0005278
0.000111149
0.000142591
0.000111509
0.000143865
0.00122739
0.00150555
0.00125674
0.00153198
0.000257351
0.00032905
0.000260877
0.000331967
0.00125871
0.00102661
0.000489618
0.000440842
0.00120467
0.000981705
0.000483817
0.000428652
0.000345681
0.000170831
0.000204029
0.000158874
0.000328781
0.000168613
0.000203079
0.000159075
0.000147657
0.000147653
0.00015821
0.000158211
0.000147592
0.000147589
0.000158407
0.000158408
0.000170787
0.000345593
0.00015888
0.000204021
0.000168574
0.000328709
0.000159081
0.000203069
0.00102655
0.0012589
0.000440819
0.000489653
0.000981653
0.00120483
0.00042863
0.000483844
0.00208956
0.00169427
0.00178806
0.00144883
0.00196583
0.00159493
0.0016921
0.00137166
0.000769373
0.000244385
0.000602823
0.000201988
0.000714194
0.000233778
0.0005643
0.000196314
0.000159754
0.000159728
0.000152081
0.000152068
0.000159094
0.000159071
0.00015175
0.000151739
0.000244175
0.000768919
0.000201892
0.000602526
0.000233597
0.000713792
0.000196236
0.00056404
0.00169418
0.00209013
0.00144875
0.00178845
0.00159485
0.00196632
0.00137158
0.00169243
0.00230591
0.00187103
0.00224042
0.00181773
0.00215815
0.00175252
0.00210072
0.00170562
0.000890412
0.000275174
0.000854611
0.000265916
0.000820977
0.000259314
0.000789789
0.000251625
0.000164662
0.00016463
0.000163468
0.000163438
0.000163707
0.000163679
0.000162606
0.00016258
0.00027483
0.0008898
0.000265613
0.000854054
0.000259022
0.000820434
0.000251369
0.000789297
0.00187093
0.00230669
0.00181764
0.00224112
0.00175242
0.00215881
0.00170553
0.00210132
0.00233882
0.00189745
0.00233135
0.00189152
0.00218584
0.00177495
0.00217979
0.00177007
0.000907279
0.00027938
0.000903698
0.000278536
0.000835199
0.000262697
0.000832275
0.000262044
0.000165023
0.00016499
0.000164981
0.000164949
0.000164019
0.00016399
0.000163994
0.000163965
0.000279015
0.000906637
0.000278175
0.000903063
0.000262388
0.000834628
0.000261737
0.00083171
0.00189734
0.00233966
0.00189142
0.00233217
0.00177485
0.00218655
0.00176997
0.00218049
0.00234076
0.00189896
0.00234124
0.00189933
0.00218706
0.00177599
0.00218761
0.00177639
0.000908085
0.000279483
0.000908342
0.00027957
0.000835757
0.00026276
0.000836014
0.000262836
0.000165022
0.000164989
0.000165047
0.000165014
0.000164017
0.000163988
0.00016404
0.000164011
0.000279117
0.000907439
0.000279204
0.000907698
0.000262451
0.000835186
0.000262526
0.000835443
0.00189885
0.00234161
0.00189923
0.00234209
0.00177589
0.00218778
0.00177629
0.00218833
0.00233928
0.00189779
0.00234077
0.00189898
0.00218558
0.00177485
0.00218694
0.00177593
0.000907248
0.000279164
0.000908051
0.000279419
0.000834988
0.00026248
0.0008357
0.000262697
0.000164985
0.000164952
0.000165025
0.000164992
0.000163977
0.000163949
0.00016402
0.000163992
0.000278799
0.000906603
0.000279053
0.000907406
0.000262171
0.000834419
0.000262388
0.000835129
0.00189769
0.00234013
0.00189887
0.00234162
0.00177475
0.0021863
0.00177583
0.00218766
0.00233684
0.00189581
0.00233869
0.00189731
0.00218332
0.00177301
0.00218496
0.00177436
0.000905835
0.000278711
0.000906883
0.00027902
0.000833702
0.000262086
0.000834634
0.000262352
0.00016495
0.000164917
0.000164989
0.000164956
0.000163946
0.000163917
0.000163985
0.000163956
0.000278346
0.000905188
0.000278655
0.000906236
0.000261779
0.000833133
0.000262044
0.000834065
0.0018957
0.00233769
0.00189721
0.00233953
0.00177291
0.00218403
0.00177426
0.00218568
0.00233396
0.00189347
0.00233599
0.00189512
0.00218066
0.00177087
0.00218249
0.00177235
0.000904186
0.000278173
0.000905332
0.000278517
0.000832203
0.000261611
0.000833227
0.000261908
0.000164902
0.00016487
0.000164944
0.000164911
0.0001639
0.000163872
0.000163941
0.000163913
0.000277809
0.000903538
0.000278152
0.000904684
0.000261305
0.000831634
0.000261601
0.000832658
0.00189336
0.0023348
0.00189501
0.00233684
0.00177077
0.00218137
0.00177225
0.00218321
0.00233074
0.00189088
0.00233295
0.00189265
0.00217769
0.0017685
0.00217968
0.00177008
0.000902388
0.000277645
0.000903602
0.00027799
0.000830561
0.000261149
0.000831652
0.000261449
0.000164865
0.000164833
0.000164906
0.000164874
0.000163865
0.000163837
0.000163906
0.000163878
0.000277283
0.000901739
0.000277627
0.000902954
0.000260844
0.000829992
0.000261144
0.000831083
0.00189077
0.00233158
0.00189254
0.00233379
0.0017684
0.0021784
0.00176998
0.0021804
0.00232724
0.00188808
0.0023296
0.00188997
0.00217442
0.00176593
0.00217657
0.00176762
0.000900464
0.000277051
0.000901743
0.00027742
0.000828792
0.00026062
0.000829946
0.000260943
0.000164815
0.000164783
0.000164858
0.000164826
0.000163817
0.000163789
0.00016386
0.000163831
0.000276689
0.000899816
0.000277058
0.000901094
0.000260315
0.000828223
0.000260638
0.000829377
0.00188797
0.00232808
0.00188985
0.00233044
0.00176582
0.00217513
0.00176752
0.00217728
0.00232344
0.00188508
0.00232597
0.00188707
0.00217083
0.00176314
0.00217316
0.00176495
0.000898412
0.000276469
0.000899759
0.000276841
0.000826891
0.000260104
0.000828116
0.000260431
0.000164776
0.000164744
0.000164818
0.000164786
0.000163779
0.000163751
0.000163822
0.000163793
0.000276109
0.000897763
0.000276479
0.00089911
0.000259801
0.00082632
0.000260127
0.000827545
0.00188496
0.00232427
0.00188696
0.0023268
0.00176303
0.00217154
0.00176484
0.00217387
0.00231931
0.00188183
0.00232201
0.00188396
0.00216689
0.00176011
0.00216941
0.00176206
0.000896214
0.000275815
0.000897639
0.000276216
0.000824838
0.000259517
0.000826146
0.000259872
0.000164724
0.000164692
0.000164768
0.000164736
0.000163728
0.0001637
0.000163772
0.000163744
0.000275456
0.000895566
0.000275857
0.00089699
0.000259215
0.000824267
0.000259569
0.000825574
0.00188172
0.00232013
0.00188385
0.00232284
0.00176
0.00216759
0.00176195
0.00217012
0.0023148
0.00187834
0.00231772
0.00188061
0.00216256
0.00175678
0.00216529
0.00175889
0.000893856
0.000275164
0.00089537
0.000275572
0.000822617
0.000258935
0.000824017
0.000259297
0.000164682
0.00016465
0.000164726
0.000164694
0.000163687
0.000163659
0.00016373
0.000163702
0.000274807
0.000893208
0.000275214
0.000894721
0.000258634
0.000822047
0.000258995
0.000823445
0.00187823
0.00231563
0.00188049
0.00231855
0.00175667
0.00216326
0.00175878
0.00216599
0.00230989
0.00187456
0.00231303
0.00187699
0.00215783
0.00175316
0.00216077
0.00175543
0.000891318
0.000274438
0.000892929
0.000274877
0.000820216
0.000258277
0.000821712
0.000258669
0.000164628
0.000164596
0.000164673
0.000164641
0.000163633
0.000163605
0.000163679
0.000163651
0.000274083
0.000890672
0.000274521
0.000892282
0.000257978
0.000819647
0.000258369
0.000821141
0.00187445
0.00231071
0.00187687
0.00231385
0.00175305
0.00215852
0.00175532
0.00216147
0.00230453
0.00187045
0.0023079
0.00187306
0.00215265
0.00174922
0.00215584
0.00175166
0.000888591
0.000273711
0.000890304
0.000274155
0.000817621
0.000257619
0.00081922
0.000258018
0.000164585
0.000164553
0.000164627
0.000164595
0.00016359
0.000163562
0.000163633
0.000163605
0.000273358
0.000887946
0.000273801
0.000889658
0.000257322
0.000817052
0.00025772
0.00081865
0.00187033
0.00230534
0.00187294
0.00230872
0.00174911
0.00215334
0.00175155
0.00215653
0.0022987
0.001866
0.00230233
0.00186879
0.00214699
0.00174493
0.00215043
0.00174756
0.000885665
0.000272938
0.000887484
0.000273409
0.000814814
0.000256905
0.000816524
0.000257336
0.000164542
0.00016451
0.000164585
0.000164553
0.000163542
0.000163515
0.000163589
0.000163561
0.000272587
0.000885021
0.000273057
0.000886838
0.00025661
0.000814246
0.00025704
0.000815955
0.00186588
0.00229952
0.00186867
0.00230314
0.00174482
0.00214768
0.00174745
0.00215112
0.00229238
0.00186118
0.00229627
0.00186416
0.00214082
0.00174024
0.00214452
0.00174308
0.000882527
0.00027211
0.000884456
0.00027261
0.000811788
0.000256138
0.000813611
0.000256595
0.000164493
0.000164461
0.000164539
0.000164507
0.000163487
0.00016346
0.000163537
0.000163509
0.000271762
0.000881884
0.00027226
0.000883812
0.000255845
0.000811221
0.0002563
0.000813043
0.00186106
0.00229319
0.00186404
0.00229708
0.00174013
0.00214151
0.00174297
0.00214521
0.00228557
0.001856
0.00228972
0.00185918
0.00213415
0.00173517
0.00213812
0.0017382
0.000879173
0.000271232
0.000881215
0.000271756
0.000808543
0.000255323
0.00081048
0.000255803
0.000164439
0.000164408
0.000164487
0.000164456
0.000163428
0.000163401
0.00016348
0.000163452
0.000270886
0.000878531
0.000271408
0.000880571
0.000255033
0.000807977
0.000255511
0.000809913
0.00185588
0.00228638
0.00185905
0.00229053
0.00173505
0.00213483
0.00173808
0.0021388
0.00227823
0.00185043
0.00228266
0.00185381
0.00212696
0.0017297
0.0021312
0.00173294
0.000875596
0.000270306
0.000877754
0.000270854
0.000805069
0.000254462
0.000807124
0.000254965
0.000164383
0.000164352
0.000164432
0.000164401
0.000163366
0.000163339
0.000163419
0.000163392
0.000269962
0.000874955
0.000270508
0.000877111
0.000254173
0.000804504
0.000254675
0.000806558
0.00185031
0.00227903
0.00185369
0.00228346
0.00172959
0.00212763
0.00173283
0.00213188
0.00227035
0.00184446
0.00227506
0.00184805
0.00211922
0.00172384
0.00212375
0.00172729
0.000871789
0.000269332
0.000874067
0.000269904
0.000801364
0.000253553
0.000803538
0.00025408
0.000164326
0.000164295
0.000164376
0.000164345
0.000163302
0.000163275
0.000163356
0.000163329
0.000268991
0.000871149
0.000269561
0.000873425
0.000253267
0.0008008
0.000253793
0.000802974
0.00184434
0.00227114
0.00184792
0.00227586
0.00172373
0.0021199
0.00172717
0.00212442
0.00226191
0.00183809
0.00226691
0.00184189
0.00211094
0.00171758
0.00211575
0.00172123
0.000867749
0.000268312
0.000870148
0.000268907
0.000797424
0.000252598
0.000799719
0.000253148
0.000164267
0.000164237
0.000164318
0.000164287
0.000163235
0.000163208
0.00016329
0.000163263
0.000267973
0.00086711
0.000268567
0.000869508
0.000252314
0.000796862
0.000252863
0.000799155
0.00183796
0.0022627
0.00184176
0.0022677
0.00171746
0.00211161
0.00172111
0.00211642
0.00225292
0.0018313
0.00225821
0.00183532
0.00210211
0.00171091
0.0021072
0.00171478
0.000863472
0.000267244
0.000865993
0.000267863
0.00079325
0.000251596
0.000795664
0.000252169
0.000164208
0.000164177
0.000164259
0.000164229
0.000163165
0.000163138
0.000163222
0.000163195
0.000266909
0.000862835
0.000267525
0.000865354
0.000251316
0.000792689
0.000251887
0.000795102
0.00183117
0.0022537
0.00183519
0.00225899
0.00171079
0.00210277
0.00171466
0.00210786
0.00224338
0.00182412
0.00224895
0.00182834
0.00209275
0.00170386
0.00209811
0.00170792
0.000858966
0.000266133
0.000861605
0.000266772
0.00078885
0.000250551
0.000791378
0.000251145
0.000164148
0.000164118
0.0001642
0.000164169
0.000163094
0.000163067
0.000163151
0.000163125
0.0002658
0.00085833
0.000266438
0.000860967
0.000250274
0.00078829
0.000250865
0.000790817
0.00182399
0.00224416
0.00182821
0.00224973
0.00170374
0.0020934
0.0017078
0.00209877
0.00223332
0.00181655
0.00223916
0.00182097
0.00208287
0.00169642
0.0020885
0.00170068
0.000854239
0.00026498
0.00085699
0.000265639
0.000784233
0.000249467
0.000786869
0.000250079
0.000164088
0.000164058
0.00016414
0.00016411
0.00016302
0.000162994
0.000163079
0.000163053
0.000264651
0.000853604
0.000265308
0.000856354
0.000249192
0.000783675
0.000249802
0.00078631
0.00181641
0.00223409
0.00182084
0.00223994
0.0016963
0.00208352
0.00170056
0.00208915
0.00222277
0.0018086
0.00222886
0.00181322
0.00207251
0.00168863