/*--------------------------------*- C++ -*----------------------------------*\
  =========                 |
  \\      /  F ield         | OpenFOAM: The Open Source CFD Toolbox
   \\    /   O peration     | Website:  https://openfoam.org
    \\  /    A nd           | Version:  9
     \\/     M anipulation  |
\*---------------------------------------------------------------------------*/
FoamFile
{
    format      ascii;
    class       volScalarField;
    location    "2.6";
    object      epsilon;
}
// * * * * * * * * * * * * * * * * * * * * * * * * * * * * * * * * * * * * * //

dimensions      [0 2 -3 0 0 0 0];

internalField   nonuniform List<scalar> 
36360
(
0.27906
0.2183
0.112595
0.099254
0.0921535
0.0651211
0.0158807
0.0140613
0.062711
0.0127691
0.0162023
0.00512319
0.0146693
0.00459865
0.00592696
0.00477344
0.00343076
0.00343245
0.00417761
0.00417748
0.00301022
0.00301029
0.00493914
0.00493913
0.0127789
0.0627364
0.0051247
0.0162113
0.00460185
0.0146829
0.00477317
0.00592887
0.218343
0.279119
0.099294
0.112636
0.0651634
0.0921872
0.0140702
0.0158854
0.49284
0.386171
0.402254
0.313347
0.314658
0.214857
0.2106
0.141226
0.160405
0.0619359
0.114673
0.0349107
0.0864083
0.0253462
0.0447358
0.0093643
0.0237437
0.0237557
0.00830818
0.00831495
0.00703545
0.00704233
0.0031288
0.0031307
0.0619612
0.160439
0.0349307
0.114701
0.025377
0.0864643
0.00937599
0.0447746
0.386224
0.492919
0.313393
0.402323
0.214933
0.314726
0.141285
0.210653
0.616774
0.490094
0.561956
0.443552
0.470517
0.335708
0.399777
0.279501
0.233595
0.115019
0.199682
0.0891388
0.167296
0.0809006
0.128036
0.0514489
0.0682953
0.0683092
0.045824
0.0458367
0.0464622
0.0464825
0.0214785
0.0214939
0.115055
0.233646
0.0891699
0.199724
0.0809588
0.167383
0.0514947
0.128108
0.490166
0.61688
0.443614
0.562048
0.335813
0.470611
0.279591
0.399858
0.698065
0.560648
0.661305
0.528536
0.581252
0.427017
0.530244
0.384545
0.288057
0.159516
0.262884
0.138624
0.235425
0.136947
0.203209
0.109999
0.108446
0.108463
0.0894513
0.0894665
0.0979795
0.0980067
0.0729803
0.0730044
0.159561
0.288121
0.138665
0.262941
0.137025
0.235538
0.110067
0.20331
0.56074
0.698199
0.528618
0.661426
0.427145
0.581365
0.384663
0.530348
0.753436
0.609557
0.728432
0.587403
0.661024
0.494456
0.624514
0.463458
0.327385
0.19284
0.309453
0.177571
0.287834
0.181495
0.263601
0.160834
0.139
0.139018
0.124975
0.124992
0.139424
0.139456
0.120205
0.120235
0.19289
0.327459
0.177619
0.309523
0.181587
0.287966
0.160919
0.263725
0.609663
0.753595
0.587502
0.728579
0.494599
0.661145
0.463595
0.624632
0.790134
0.642267
0.773786
0.627669
0.715979
0.541432
0.691222
0.520224
0.354209
0.215858
0.342202
0.205536
0.32492
0.213204
0.30814
0.198851
0.160197
0.160217
0.150685
0.150704
0.168873
0.16891
0.155548
0.155582
0.215913
0.354289
0.205588
0.34228
0.213307
0.325066
0.198949
0.30828
0.642385
0.790314
0.627781
0.773955
0.541585
0.716102
0.520373
0.691344
0.813001
0.662783
0.803034
0.653827
0.751282
0.57176
0.735702
0.558361
0.371244
0.230571
0.363795
0.224132
0.349041
0.233828
0.338376
0.224711
0.173775
0.173796
0.167831
0.167851
0.187995
0.188034
0.179544
0.179582
0.230629
0.37133
0.224189
0.363878
0.23394
0.349198
0.224819
0.338528
0.66291
0.813197
0.653949
0.803222
0.571919
0.751404
0.558517
0.735823
0.82604
0.674568
0.820545
0.669589
0.772046
0.589627
0.763117
0.581938
0.381158
0.239181
0.376961
0.235531
0.363335
0.246029
0.357179
0.240776
0.181738
0.18176
0.178361
0.178382
0.199288
0.19933
0.194425
0.194467
0.239241
0.381248
0.23559
0.377048
0.246148
0.3635
0.240892
0.357341
0.674702
0.826249
0.669719
0.820747
0.589791
0.772168
0.5821
0.763238
0.832443
0.680466
0.829917
0.678118
0.782844
0.598915
0.778375
0.595067
0.386251
0.243659
0.38421
0.241856
0.370849
0.252441
0.367729
0.249776
0.185902
0.185925
0.184222
0.184245
0.205217
0.205261
0.202749
0.202793
0.243722
0.386344
0.241918
0.384301
0.252564
0.371021
0.249897
0.367898
0.680604
0.832661
0.678254
0.83013
0.599084
0.782966
0.595233
0.778496
0.834655
0.682661
0.833978
0.681944
0.787332
0.602775
0.785632
0.601306
0.388318
0.245555
0.387606
0.244884
0.374082
0.255222
0.372836
0.254141
0.187699
0.187722
0.187055
0.187078
0.207798
0.207844
0.206789
0.206834
0.24562
0.388413
0.244947
0.3877
0.255349
0.374258
0.254267
0.37301
0.682804
0.83488
0.682085
0.8342
0.602948
0.787457
0.601477
0.785754
0.834388
0.682674
0.834754
0.682879
0.787981
0.603351
0.787945
0.603311
0.3886
0.245933
0.388653
0.245919
0.374757
0.255868
0.374624
0.255715
0.188111
0.188135
0.188066
0.18809
0.208426
0.208472
0.208264
0.20831
0.245999
0.388696
0.245984
0.388749
0.255997
0.374936
0.255843
0.374802
0.682819
0.834618
0.683023
0.834981
0.603527
0.788109
0.603486
0.788071
0.832682
0.681462
0.833713
0.682227
0.786648
0.602247
0.787536
0.602982
0.38793
0.245532
0.388405
0.245851
0.374129
0.255428
0.374581
0.255753
0.187818
0.187842
0.188069
0.188092
0.208061
0.208107
0.208333
0.208379
0.245598
0.388028
0.245917
0.388503
0.255558
0.37431
0.255883
0.374761
0.68161
0.832914
0.682374
0.833944
0.602426
0.786779
0.603159
0.787664
0.830087
0.679499
0.831496
0.680578
0.783993
0.600025
0.785372
0.601171
0.386659
0.244626
0.387383
0.245156
0.372643
0.254284
0.373417
0.254876
0.18707
0.187094
0.187515
0.187539
0.207058
0.207105
0.207573
0.20762
0.244693
0.386758
0.245223
0.387481
0.254414
0.372824
0.255007
0.373598
0.679647
0.830321
0.680725
0.831729
0.600205
0.784126
0.60135
0.785502
0.826945
0.677095
0.828603
0.678372
0.780614
0.597206
0.782319
0.59862
0.385058
0.243458
0.38593
0.244106
0.370712
0.252785
0.371686
0.253538
0.186089
0.186113
0.186638
0.186662
0.20574
0.205786
0.206398
0.206444
0.243525
0.385158
0.244172
0.386029
0.252916
0.370894
0.253669
0.371868
0.677244
0.827179
0.678521
0.828837
0.597387
0.780749
0.5988
0.782451
0.823377
0.674363
0.82524
0.675796
0.776712
0.59396
0.778663
0.595574
0.383223
0.242107
0.384206
0.24284
0.36847
0.25104
0.36959
0.251907
0.18495
0.184974
0.185572
0.185596
0.204201
0.204247
0.204961
0.205007
0.242174
0.383323
0.242907
0.384305
0.25117
0.368652
0.252038
0.369772
0.674512
0.823612
0.675945
0.825474
0.594142
0.776848
0.595756
0.778797
0.819444
0.671358
0.821486
0.672925
0.772378
0.590364
0.774539
0.592149
0.381197
0.240611
0.382273
0.241415
0.365975
0.249095
0.367217
0.250059
0.183683
0.183707
0.184368
0.184392
0.202484
0.202531
0.203331
0.203377
0.240678
0.381297
0.241482
0.382372
0.249225
0.366158
0.250189
0.3674
0.671508
0.819679
0.673074
0.82172
0.590547
0.772517
0.592332
0.774675
0.815159
0.668095
0.817378
0.669791
0.767643
0.586443
0.770005
0.588391
0.378994
0.23898
0.380158
0.239851
0.363249
0.246966
0.364607
0.248022
0.182301
0.182325
0.183043
0.183067
0.200605
0.200651
0.201533
0.201579
0.239047
0.379094
0.239918
0.380258
0.247096
0.363431
0.248152
0.364789
0.668245
0.815393
0.669941
0.817612
0.586627
0.767783
0.588574
0.770142
0.810516
0.664571
0.812916
0.666399
0.762507
0.582195
0.765071
0.584308
0.376613
0.237216
0.377867
0.238154
0.360293
0.244657
0.361766
0.245804
0.180804
0.180829
0.181604
0.181628
0.198565
0.198611
0.199574
0.19962
0.237283
0.376713
0.238221
0.377967
0.244787
0.360475
0.245934
0.361949
0.664722
0.81075
0.666549
0.813149
0.582379
0.762649
0.584492
0.76521
0.805502
0.66078
0.808087
0.662741
0.756961
0.577613
0.759731
0.579894
0.37405
0.235316
0.375395
0.236323
0.357103
0.242165
0.358694
0.243404
0.179192
0.179216
0.18005
0.180074
0.196362
0.196408
0.197454
0.1975
0.235384
0.374151
0.23639
0.375496
0.242294
0.357285
0.243534
0.358876
0.66093
0.805736
0.662891
0.808321
0.577798
0.757105
0.580078
0.759872
0.800115
0.656717
0.802889
0.658816
0.751
0.572694
0.75398
0.575146
0.371303
0.233278
0.372742
0.234355
0.353676
0.239484
0.355388
0.240819
0.177461
0.177485
0.178379
0.178403
0.193992
0.194038
0.195168
0.195214
0.233346
0.371404
0.234422
0.372842
0.239613
0.353857
0.240948
0.355569
0.656868
0.800349
0.658966
0.803123
0.57288
0.751146
0.575331
0.754124
0.794344
0.652376
0.797311
0.654615
0.744615
0.567426
0.747809
0.570055
0.368366
0.231099
0.3699
0.232246
0.350005
0.236612
0.35184
0.238043
0.175608
0.175632
0.176587
0.176612
0.191452
0.191498
0.192714
0.19276
0.231166
0.368467
0.232314
0.370001
0.23674
0.350186
0.238172
0.352021
0.652527
0.794577
0.654765
0.797544
0.567613
0.744763
0.570241
0.747954
0.788186
0.647753
0.791347
0.650133
0.737803
0.561806
0.741211
0.564612
0.365238
0.228776
0.366868
0.229995
0.346089
0.233548
0.348047
0.235076
0.173633
0.173657
0.174674
0.174698
0.188742
0.188787
0.190089
0.190135
0.228843
0.365339
0.230063
0.366969
0.233675
0.34627
0.235204
0.348228
0.647904
0.788418
0.650284
0.791579
0.561993
0.737952
0.564798
0.741359
0.781644
0.642851
0.784997
0.64537
0.730567
0.555834
0.734187
0.558816
0.361918
0.226311
0.363644
0.227601
0.34193
0.230292
0.34401
0.231916
0.171537
0.171561
0.172638
0.172662
0.185861
0.185906
0.187294
0.187339
0.226378
0.36202
0.227669
0.363745
0.230419
0.34211
0.232044
0.344191
0.643002
0.781876
0.645521
0.785228
0.556022
0.730718
0.559003
0.734336
0.774729
0.637676
0.778267
0.640331
0.722918
0.549518
0.726745
0.552672
0.358413
0.223706
0.360231
0.225066
0.337533
0.226851
0.339732
0.228568
0.169321
0.169345
0.170482
0.170506
0.182816
0.182861
0.184331
0.184376
0.223774
0.358514
0.225133
0.360332
0.226977
0.337713
0.228694
0.339912
0.637827
0.77496
0.640482
0.778497
0.549705
0.723071
0.55286
0.726895
0.767458
0.63224
0.771171
0.635023
0.714877
0.542868
0.718898
0.546188
0.354728
0.220968
0.356635
0.222394
0.33291
0.223233
0.335221
0.225037
0.166992
0.167016
0.168209
0.168233
0.179615
0.179659
0.181208
0.181252
0.221035
0.354829
0.222461
0.356736
0.223358
0.333088
0.225163
0.3354
0.63239
0.767688
0.635174
0.771401
0.543056
0.715032
0.546376
0.71905
0.759852
0.626556
0.76373
0.629462
0.706474
0.535926
0.710672
0.539385
0.350875
0.218104
0.352865
0.219592
0.328078
0.21945
0.330491
0.221336
0.164556
0.16458
0.165825
0.165849
0.176268
0.176312
0.177933
0.177977
0.218171
0.350976
0.219659
0.352966
0.219574
0.328256
0.221461
0.33067
0.626706
0.760081
0.629612
0.763958
0.536114
0.70663
0.539573
0.710826
0.751942
0.620637
0.755967
0.623657
0.697741
0.528737
0.702102
0.532321
0.346864
0.215123
0.348931
0.216668
0.323055
0.215516
0.325563
0.217477
0.16202
0.162044
0.163338
0.163362
0.172787
0.172831
0.174518
0.174562
0.21519
0.346966
0.216735
0.349032
0.215639
0.323232
0.217601
0.325741
0.620787
0.752169
0.623807
0.756194
0.528925
0.697899
0.532509
0.702258
0.743766
0.614514
0.747919
0.617632
0.68871
0.521297
0.693217
0.525005
0.342712
0.212034
0.344848
0.213631
0.317855
0.211445
0.320451
0.213473
0.159394
0.159418
0.160756
0.16078
0.169187
0.16923
0.170976
0.17102
0.212101
0.342813
0.213698
0.344949
0.211567
0.318031
0.213596
0.320627
0.614664
0.743992
0.617782
0.748145
0.521485
0.688869
0.525193
0.693374
0.73536
0.60821
0.739624
0.611417
0.679412
0.51363
0.68405
0.51745
0.338432
0.208848
0.34063
0.210493
0.312496
0.20725
0.31517
0.209339
0.156686
0.15671
0.158088
0.158112
0.165478
0.165521
0.167321
0.167364
0.208915
0.338532
0.21056
0.340731
0.207371
0.31267
0.209461
0.315345
0.608359
0.735584
0.611566
0.739848
0.513818
0.679571
0.517638
0.684208
0.726749
0.601734
0.731112
0.605026
0.669861
0.505753
0.674627
0.509679
0.334027
0.205567
0.336287
0.207259
0.306982
0.202936
0.309734
0.205086
0.153897
0.153921
0.155339
0.155363
0.161667
0.161709
0.163562
0.163605
0.205633
0.334128
0.207326
0.336388
0.203056
0.307154
0.205207
0.309908
0.601882
0.72697
0.605174
0.731335
0.505939
0.670021
0.509866
0.674786
0.717934
0.595078
0.722401
0.598462
0.660037
0.497646
0.664947
0.501693
0.329488
0.202181
0.331818
0.203928
0.301298
0.198492
0.30414
0.200711
0.151018
0.151041
0.152507
0.152531
0.157745
0.157786
0.159699
0.159741
0.202247
0.329587
0.203994
0.331918
0.19861
0.301468
0.20083
0.304312
0.595224
0.718154
0.598609
0.722621
0.497831
0.660198
0.501879
0.665106
0.708885
0.588206
0.713475
0.591703
0.649859
0.489223
0.654962
0.493445
0.324776
0.198657
0.327198
0.200479
0.295387
0.193875
0.298354
0.196189
0.148019
0.148042
0.149573
0.149597
0.153673
0.153714
0.15571
0.155751
0.198723
0.324875
0.200544
0.327298
0.193992
0.295556
0.196306
0.298524
0.588351
0.709101
0.591849
0.713693
0.489406
0.65002
0.49363
0.655122
0.699508
0.581038
0.704278
0.584698
0.639163
0.480354
0.644553
0.484818
0.319815
0.194928
0.322375
0.196863
0.289145
0.188997
0.292296
0.191457
0.144838
0.144861
0.146493
0.146516
0.149372
0.149412
0.151537
0.151578
0.194993
0.319913
0.196928
0.322473
0.189111
0.289311
0.191572
0.292463
0.581182
0.699721
0.584843
0.704492
0.480536
0.639323
0.485001
0.644712
0.68964
0.573404
0.69468
0.577322
0.627667
0.470824
0.633502
0.475656
0.314471
0.190879
0.317242
0.19299
0.282389
0.183706
0.285825
0.186396
0.141369
0.141392
0.143184
0.143206
0.144704
0.144743
0.147075
0.147114
0.190942
0.314568
0.193054
0.317339
0.183817
0.282551
0.186509
0.285989
0.573546
0.689849
0.577464
0.694891
0.471003
0.627827
0.475836
0.633661
0.679031
0.565077
0.684477
0.569373
0.614961
0.460312
0.621462
0.46568
0.308549
0.186339
0.311636
0.18872
0.274856
0.177781
0.278719
0.180821
0.137456
0.137479
0.139515
0.139537
0.139468
0.139506
0.142152
0.142191
0.186402
0.308644
0.188783
0.311732
0.177891
0.275015
0.180931
0.27888
0.565216
0.679236
0.569513
0.684683
0.460489
0.61512
0.465859
0.62162
0.667353
0.555746
0.673377
0.560587
0.600501
0.448437
0.607955
0.454538
0.301774
0.18107
0.305328
0.18385
0.266202
0.170934
0.270675
0.174476
0.132881
0.132903
0.135301
0.135323
0.133405
0.133442
0.136539
0.136577
0.181132
0.301868
0.183913
0.305422
0.171041
0.266359
0.174584
0.270834
0.555883
0.667554
0.560725
0.673579
0.448613
0.600661
0.454715
0.608114
0.654311
0.544929
0.661037
0.550597
0.583696
0.434765
0.592391
0.441827
0.293668
0.174688
0.297974
0.178087
0.255939
0.162794
0.261295
0.167036
0.127336
0.127358
0.130285
0.130307
0.126228
0.126264
0.129955
0.129992
0.174749
0.293761
0.178149
0.298067
0.162899
0.256094
0.167142
0.261451
0.545065
0.654509
0.550734
0.661236
0.434941
0.58386
0.442003
0.592551
0.640635
0.530702
0.647373
0.538572
0.564674
0.41835
0.574315
0.427013
0.282667
0.166347
0.288774
0.170882
0.243026
0.152884
0.249913
0.158077
0.12039
0.120411
0.1241
0.124122
0.117758
0.117793
0.122135
0.122171
0.166408
0.282759
0.170943
0.288866
0.152986
0.243179
0.158181
0.250068
0.530838
0.640834
0.538708
0.647571
0.418529
0.564845
0.42719
0.57448
0.639188
0.495862
0.636358
0.519377
0.54551
0.387703
0.555448
0.407031
0.262145
0.154356
0.274454
0.16094
0.224216
0.140963
0.234687
0.147116
0.111698
0.111719
0.116281
0.116302
0.108469
0.108502
0.113116
0.11315
0.154416
0.262237
0.161001
0.274546
0.14106
0.224364
0.147216
0.234838
0.495996
0.639394
0.519512
0.636559
0.387883
0.545698
0.407212
0.555626
0.41655
0.32512
0.20518
0.1631
0.364596
0.284101
0.168773
0.13586
0.119657
0.0330562
0.0359009
0.00861554
0.0964931
0.0233023
0.025474
0.00678882
0.00820233
0.00821049
0.00435894
0.00435974
0.00556245
0.00556666
0.00422934
0.00422962
0.0330844
0.119692
0.00862212
0.0359363
0.02332
0.0965247
0.00679333
0.025495
0.325179
0.416648
0.163162
0.205261
0.284153
0.364677
0.135911
0.168837
0.674219
0.53697
0.566305
0.446273
0.60268
0.477094
0.503173
0.39462
0.261874
0.123938
0.197011
0.0784627
0.219785
0.0965756
0.163448
0.0593944
0.0657907
0.0658065
0.0287765
0.0287937
0.0459476
0.0459622
0.01816
0.0181722
0.123972
0.261919
0.0784936
0.197049
0.0966059
0.219823
0.0594202
0.163481
0.537038
0.674336
0.446334
0.566411
0.477153
0.602779
0.394673
0.503261
0.820373
0.664457
0.756074
0.607717
0.736806
0.592476
0.677836
0.541164
0.362136
0.204004
0.316244
0.166189
0.306789
0.163527
0.266939
0.13171
0.136795
0.13681
0.102693
0.102709
0.104285
0.104299
0.0759797
0.0759939
0.204045
0.362194
0.166227
0.316296
0.163565
0.306841
0.131744
0.266984
0.664546
0.82052
0.607795
0.756205
0.592554
0.736932
0.541232
0.677947
0.913721
0.748687
0.87188
0.710672
0.82267
0.668827
0.784114
0.634316
0.433708
0.265717
0.400953
0.237144
0.36923
0.21606
0.340596
0.191656
0.193674
0.19369
0.167198
0.167214
0.152222
0.152238
0.129822
0.129837
0.265762
0.433776
0.237186
0.401017
0.216103
0.369294
0.191697
0.340655
0.748797
0.913903
0.710772
0.872044
0.668925
0.822828
0.634405
0.784256
0.975425
0.805516
0.947771
0.779941
0.879827
0.720624
0.854161
0.697279
0.484003
0.310456
0.4612
0.290063
0.413361
0.254437
0.393329
0.236923
0.235486
0.235502
0.216381
0.216398
0.187748
0.187764
0.1715
0.171517
0.310503
0.48408
0.290109
0.461273
0.254483
0.413433
0.236968
0.393397
0.805646
0.97564
0.780061
0.94797
0.720739
0.880015
0.697386
0.854334
1.01542
0.842859
0.997695
0.826261
0.917083
0.754781
0.900551
0.739588
0.517893
0.341099
0.50276
0.327373
0.443148
0.280742
0.429846
0.268963
0.264328
0.264345
0.25139
0.251407
0.212247
0.212265
0.201265
0.201282
0.341148
0.517975
0.327421
0.502839
0.280791
0.443226
0.269011
0.429921
0.843005
1.01567
0.826398
0.997926
0.754909
0.917297
0.73971
0.900752
1.04
0.866079
1.02933
0.855969
0.940032
0.776024
0.930065
0.766775
0.539404
0.360781
0.530003
0.352158
0.462008
0.297566
0.453772
0.290205
0.282948
0.282965
0.27478
0.274797
0.227977
0.227995
0.22109
0.221107
0.360831
0.539491
0.352207
0.530087
0.297617
0.46209
0.290255
0.453852
0.866237
1.04028
0.85612
1.02959
0.776164
0.940268
0.766909
0.93029
1.05386
0.879361
1.04805
0.873768
0.952947
0.788144
0.947535
0.783044
0.552019
0.372471
0.546677
0.367504
0.472998
0.307474
0.468352
0.303274
0.294069
0.294086
0.289335
0.289353
0.237281
0.2373
0.233332
0.23335
0.372523
0.55211
0.367555
0.546766
0.307526
0.473084
0.303326
0.468436
0.87953
1.05415
0.873932
1.04833
0.788293
0.9532
0.783188
0.94778
1.06051
0.885956
1.05793
0.883357
0.959154
0.794138
0.95674
0.791776
0.558589
0.378701
0.55596
0.376187
0.478662
0.312683
0.476402
0.310589
0.300053
0.300071
0.297628
0.297645
0.242214
0.242233
0.240224
0.240243
0.378754
0.558683
0.376239
0.556052
0.312737
0.478751
0.310642
0.476489
0.886133
1.06082
0.88353
1.05823
0.794294
0.95942
0.791928
0.957
1.06259
0.8883
1.06204
0.887583
0.961111
0.796263
0.96058
0.795611
0.561304
0.381444
0.560379
0.380469
0.480957
0.314923
0.480182
0.314136
0.302757
0.302776
0.30178
0.301798
0.24439
0.24441
0.243612
0.243632
0.381498
0.561401
0.380522
0.560474
0.314979
0.481049
0.314191
0.480272
0.888484
1.06291
0.887763
1.06235
0.796423
0.961387
0.795769
0.960851
1.06195
0.888106
1.06255
0.888467
0.960565
0.796099
0.96109
0.796413
0.561698
0.382085
0.561775
0.382025
0.481247
0.315395
0.481333
0.315375
0.303487
0.303506
0.303369
0.303388
0.244928
0.244948
0.244861
0.244881
0.38214
0.561797
0.382079
0.561873
0.315452
0.48134
0.315431
0.481425
0.888293
1.06227
0.888653
1.06287
0.796262
0.960846
0.796575
0.961367
1.05963
0.886416
1.06099
0.887453
0.958501
0.794604
0.959719
0.795523
0.560794
0.381583
0.561438
0.382005
0.480433
0.314928
0.481004
0.315306
0.30315
0.303169
0.303474
0.303493
0.244602
0.244622
0.244894
0.244914
0.381639
0.560895
0.38206
0.561538
0.314985
0.480527
0.315362
0.481098
0.886606
1.05996
0.887642
1.06132
0.79477
0.958784
0.795687
0.96
1.0563
0.883818
1.05811
0.885248
0.95551
0.792305
0.957131
0.793569
0.559084
0.380362
0.560077
0.381102
0.478933
0.313864
0.479797
0.3145
0.302147
0.302166
0.302771
0.30279
0.24373
0.24375
0.244264
0.244284
0.380419
0.559186
0.381158
0.560178
0.313922
0.479028
0.314558
0.479892
0.884009
1.05663
0.885439
1.05844
0.792472
0.955795
0.793735
0.957415
1.05231
0.880662
1.05442
0.882343
0.95193
0.789518
0.953819
0.791001
0.556909
0.378746
0.558109
0.37966
0.477043
0.312476
0.478082
0.313257
0.300781
0.3008
0.301564
0.301584
0.242567
0.242587
0.243229
0.243249
0.378803
0.557012
0.379717
0.558211
0.312534
0.477139
0.313314
0.478177
0.880855
1.05264
0.882535
1.05475
0.789685
0.952215
0.791168
0.954104
1.04781
0.877092
1.05016
0.878969
0.947885
0.786363
0.949998
0.788021
0.554411
0.376864
0.555762
0.377901
0.474878
0.310869
0.476046
0.311751
0.299178
0.299197
0.30007
0.300089
0.241209
0.241229
0.241961
0.241981
0.376922
0.554514
0.377958
0.555865
0.310927
0.474974
0.311809
0.476142
0.877285
1.04814
0.879161
1.05049
0.786531
0.94817
0.788189
0.950283
1.04288
0.873184
1.04544
0.875225
0.943442
0.782907
0.94575
0.784712
0.551657
0.374777
0.553131
0.375912
0.472492
0.309087
0.473767
0.310054
0.297393
0.297412
0.298372
0.298391
0.239698
0.239719
0.240524
0.240545
0.374835
0.551761
0.37597
0.553235
0.309146
0.472589
0.310112
0.473863
0.873377
1.04321
0.875418
1.04577
0.783075
0.943727
0.78488
0.946035
1.03753
0.868958
1.0403
0.871157
0.938615
0.779165
0.941115
0.781112
0.54867
0.372505
0.55026
0.373731
0.469902
0.307148
0.471279
0.308192
0.295446
0.295466
0.296505
0.296524
0.238051
0.238071
0.238944
0.238965
0.372563
0.548774
0.373789
0.550364
0.307207
0.469999
0.308251
0.471375
0.869152
1.03786
0.87135
1.04063
0.779333
0.9389
0.78128
0.9414
1.03175
0.864413
1.03474
0.866773
0.933397
0.775133
0.936095
0.777227
0.545451
0.370053
0.547157
0.37137
0.467108
0.305052
0.468587
0.306175
0.293343
0.293362
0.29448
0.294499
0.236268
0.236289
0.23723
0.23725
0.370112
0.545556
0.371428
0.547262
0.305112
0.467205
0.306234
0.468684
0.864607
1.03208
0.866966
1.03507
0.775302
0.933681
0.777395
0.936379
1.02554
0.859539
1.02874
0.862062
0.927772
0.770803
0.930673
0.773045
0.541996
0.367419
0.543821
0.368827
0.464106
0.302799
0.46569
0.304001
0.291081
0.291101
0.292298
0.292317
0.23435
0.234371
0.23538
0.235401
0.367479
0.542102
0.368886
0.543926
0.302858
0.464204
0.30406
0.465787
0.859732
1.02587
0.862256
1.02907
0.770972
0.928055
0.773213
0.930956
1.01888
0.854328
1.02231
0.857022
0.92174
0.766174
0.924846
0.768567
0.538301
0.3646
0.540247
0.366101
0.460893
0.300384
0.462583
0.301668
0.288659
0.288679
0.289956
0.289976
0.232293
0.232314
0.233393
0.233414
0.364659
0.538407
0.36616
0.540352
0.300444
0.460991
0.301727
0.462681
0.854521
1.01921
0.857215
1.02263
0.766343
0.922022
0.768736
0.925129
1.01177
0.848776
1.01542
0.85164
0.915287
0.761236
0.918604
0.763784
0.534361
0.36159
0.536429
0.363187
0.457464
0.297804
0.459262
0.29917
0.286072
0.286092
0.287451
0.287471
0.230094
0.230115
0.231265
0.231286
0.36165
0.534467
0.363246
0.536535
0.297864
0.457562
0.29923
0.45936
0.848969
1.01209
0.851833
1.01575
0.761405
0.915569
0.763952
0.918886
1.0042
0.84288
1.00808
0.845916
0.908413
0.755987
0.911941
0.758691
0.530173
0.358389
0.532365
0.360081
0.453816
0.295058
0.455724
0.296507
0.283318
0.283339
0.284781
0.284801
0.227752
0.227773
0.228994
0.229015
0.358449
0.530279
0.360141
0.532472
0.295118
0.453915
0.296567
0.455822
0.843073
1.00452
0.846109
1.0084
0.756156
0.908693
0.758859
0.912221
0.996169
0.836639
1.00028
0.839847
0.901119
0.750429
0.904856
0.753286
0.525737
0.354996
0.528053
0.356784
0.449951
0.292146
0.451967
0.293678
0.280399
0.280419
0.281944
0.281965
0.225268
0.225289
0.226581
0.226602
0.355057
0.525845
0.356844
0.52816
0.292206
0.45005
0.293738
0.452066
0.836832
0.99649
0.84004
1.0006
0.750598
0.901398
0.753455
0.905135
0.987698
0.830063
0.992028
0.833437
0.893417
0.744571
0.897356
0.747576
0.52106
0.351416
0.523495
0.353296
0.445874
0.289072
0.447995
0.290684
0.277316
0.277337
0.278942
0.278963
0.222644
0.222665
0.224026
0.224047
0.351477
0.521167
0.353357
0.523603
0.289132
0.445973
0.290745
0.448094
0.830255
0.988017
0.833629
0.992348
0.744739
0.893694
0.747744
0.897633
0.978802
0.823158
0.983341
0.826694
0.885325
0.738428
0.889456
0.741572
0.516147
0.347654
0.518699
0.349624
0.441594
0.285842
0.443815
0.287531
0.274077
0.274098
0.27578
0.275801
0.219886
0.219907
0.221333
0.221355
0.347716
0.516255
0.349685
0.518806
0.285903
0.441693
0.287592
0.443914
0.82335
0.979119
0.826886
0.983658
0.738595
0.8856
0.74174
0.889731
0.96952
0.815952
0.974246
0.819631
0.876861
0.732011
0.881175
0.735293
0.511018
0.343723
0.513674
0.345775
0.437121
0.282466
0.439437
0.284227
0.270689
0.27071
0.272465
0.272486
0.217001
0.217023
0.218511
0.218532
0.343785
0.511126
0.345837
0.513782
0.282527
0.437221
0.284287
0.439537
0.816144
0.969835
0.819823
0.974561
0.732178
0.877135
0.73546
0.881449
0.95988
0.808501
0.964784
0.812301
0.868069
0.725317
0.87254
0.728734
0.505692
0.339634
0.508445
0.341763
0.432467
0.278954
0.434872
0.280781
0.267163
0.267184
0.269006
0.269027
0.214
0.214021
0.215566
0.215588
0.339696
0.505801
0.341825
0.508553
0.279015
0.432567
0.280842
0.434971
0.808692
0.960192
0.812492
0.965096
0.725484
0.86834
0.728901
0.872812
0.949905
0.800786
0.954969
0.804717
0.858987
0.718399
0.863598
0.721921
0.500176
0.335396
0.503022
0.337598
0.427651
0.275318
0.430133
0.277205
0.263506
0.263528
0.265413
0.265434
0.210889
0.210911
0.212509
0.21253
0.335459
0.500284
0.33766
0.503131
0.275378
0.42775
0.277265
0.430233
0.800976
0.950214
0.804907
0.955279
0.718565
0.859256
0.722087
0.863867
0.93964
0.792831
0.944844
0.796878
0.849647
0.71128
0.854383
0.7149
0.49448
0.331016
0.497415
0.333288
0.422685
0.271565
0.425241
0.273509
0.259725
0.259746
0.261693
0.261714
0.207678
0.207699
0.209347
0.209368
0.331078
0.494589
0.33335
0.497523
0.271626
0.422785
0.27357
0.42534
0.79302
0.939946
0.797067
0.945151
0.711445
0.849913
0.715065
0.85465
0.929114
0.784652
0.934445
0.788809
0.840074
0.70397
0.844923
0.707684
0.488609
0.326491
0.491631
0.328836
0.417575
0.267697
0.420203
0.269699
0.255814
0.255836
0.257848
0.257869
0.204365
0.204386
0.206085
0.206106
0.326554
0.488717
0.328898
0.491739
0.267758
0.417674
0.269759
0.420302
0.78484
0.929416
0.788997
0.934748
0.704134
0.840337
0.707848
0.845188
0.918332
0.776241
0.923791
0.780516
0.830274
0.696464
0.835237
0.700278
0.482542
0.321801
0.485665
0.324232
0.412306
0.263698
0.415016
0.265768
0.251754
0.251775
0.253866
0.253887
0.200935
0.200957
0.202716
0.202737
0.321864
0.48265
0.324295
0.485773
0.263759
0.412404
0.265829
0.415115
0.776427
0.91863
0.780702
0.924091
0.696627
0.830533
0.700441
0.835498
0.907261
0.767549
0.912871
0.771972
0.820215
0.688712
0.825313
0.692658
0.476224
0.316891
0.479481
0.31944
0.40683
0.259527
0.409651
0.261689
0.24749
0.247512
0.249711
0.249733
0.197349
0.19737
0.199214
0.199236
0.316954
0.476332
0.319503
0.479589
0.259587
0.406928
0.26175
0.40975
0.767732
0.907555
0.772156
0.913166
0.688872
0.820471
0.69282
0.82557
0.895823
0.75848
0.901629
0.763105
0.809823
0.680616
0.8151
0.684745
0.469556
0.311664
0.473003
0.314386
0.401061
0.255101
0.404041
0.257403
0.24293
0.242951
0.245313
0.245335
0.19353
0.193552
0.195523
0.195544
0.311727
0.469663
0.314448
0.47311
0.255161
0.401158
0.257463
0.404139
0.758661
0.896111
0.763287
0.90192
0.680774
0.810075
0.684904
0.815353
0.883868
0.748884
0.889954
0.753795
0.798953
0.672047
0.804491
0.676434
0.462379
0.305968
0.466103
0.308946
0.394859
0.250292
0.398076
0.252804
0.237925
0.237946
0.240552
0.240573
0.189355
0.189376
0.191544
0.191565
0.30603
0.462485
0.309008
0.46621
0.250352
0.394956
0.252864
0.398173
0.749063
0.884151
0.753974
0.890239
0.672203
0.799199
0.676591
0.80474
0.871189
0.738542
0.877665
0.743856
0.78738
0.662783
0.7933
0.667549
0.454465
0.299579
0.45859
0.302934
0.388016
0.244907
0.391583
0.247735
0.232262
0.232283
0.235247
0.235268
0.184641
0.184662
0.187125
0.187146
0.299641
0.454571
0.302996
0.458695
0.244966
0.388111
0.247794
0.391679
0.738718
0.871466
0.744033
0.877944
0.662937
0.787622
0.667703
0.793544
0.857569
0.727172
0.864535
0.733038
0.774836
0.652524
0.781274
0.657829
0.445484
0.292174
0.450192
0.296086
0.380226
0.238663
0.384312
0.241962
0.225632
0.225653
0.229145
0.229166
0.17913
0.179151
0.18205
0.18207
0.292236
0.445589
0.296148
0.450296
0.238722
0.38032
0.242021
0.384407
0.727346
0.857841
0.733212
0.864809
0.652675
0.775073
0.657982
0.781512
0.843109
0.714336
0.850427
0.721014
0.761202
0.640767
0.768167
0.646913
0.434783
0.28316
0.440475
0.28798
0.370889
0.231056
0.375863
0.235123
0.21754
0.217561
0.221863
0.221884
0.172417
0.172438
0.176001
0.176021
0.283222
0.434888
0.288042
0.440579
0.231115
0.370984
0.235182
0.375957
0.714507
0.843377
0.721187
0.850696
0.640917
0.761436
0.647064
0.768402
0.830588
0.697943
0.83611
0.706958
0.748171
0.625293
0.754272
0.633873
0.420095
0.271135
0.428288
0.277718
0.357947
0.220893
0.365183
0.226459
0.207149
0.207171
0.212745
0.212767
0.163825
0.163845
0.168448
0.168469
0.271198
0.4202
0.27778
0.428392
0.220952
0.358042
0.226518
0.365278
0.698113
0.830855
0.707128
0.836376
0.625442
0.748403
0.634023
0.754504
0.844917
0.657193
0.830752
0.684946
0.755422
0.586394
0.746262
0.612782
0.392543
0.253548
0.409019
0.263207
0.333307
0.205919
0.34809
0.214163
0.193749
0.19377
0.20085
0.200872
0.152762
0.152783
0.158625
0.158646
0.253611
0.392649
0.26327
0.409124
0.205978
0.333401
0.214222
0.348185
0.65736
0.845193
0.685114
0.831021
0.58654
0.755662
0.61293
0.746496
0.471253
0.369159
0.245336
0.193692
0.449594
0.351523
0.229393
0.180968
0.146434
0.0466003
0.0494311
0.011111
0.135492
0.0408091
0.0436103
0.00996934
0.0131024
0.0131163
0.00481059
0.00481269
0.0108232
0.0108346
0.00461308
0.0046145
0.046641
0.146481
0.0111229
0.0494796
0.0408445
0.135534
0.00997874
0.0436533
0.369234
0.471379
0.193772
0.245444
0.35159
0.449706
0.18104
0.229489
0.752459
0.603709
0.63347
0.502244
0.720889
0.576598
0.606653
0.479735
0.311743
0.159386
0.235673
0.102684
0.291205
0.144407
0.219906
0.0924938
0.0938146
0.0938332
0.0454712
0.0454934
0.0816662
0.0816836
0.0380863
0.0381064
0.159429
0.311799
0.102726
0.235722
0.144446
0.291256
0.0925303
0.21995
0.603795
0.752607
0.502321
0.633605
0.576675
0.721022
0.479804
0.606774
0.917519
0.74987
0.844379
0.684324
0.877502
0.714436
0.808365
0.652862
0.431785
0.259216
0.376516
0.212046
0.402479
0.235462
0.351416
0.192494
0.184115
0.184133
0.140901
0.140918
0.163393
0.163409
0.124277
0.124294
0.259262
0.431854
0.212091
0.376579
0.235506
0.402543
0.192535
0.351474
0.749981
0.917703
0.684421
0.844544
0.714536
0.877668
0.652951
0.808513
1.02482
0.848313
0.976605
0.803757
0.978283
0.806283
0.933078
0.76479
0.51876
0.336394
0.478868
0.300629
0.482377
0.305537
0.445788
0.273097
0.256154
0.256172
0.222607
0.222624
0.228457
0.228474
0.198185
0.198201
0.336442
0.518839
0.300676
0.478943
0.305583
0.482451
0.273143
0.445858
0.848448
1.02504
0.803879
0.976809
0.806406
0.978487
0.764902
0.933262
1.09617
0.915254
1.06417
0.885088
1.04498
0.868395
1.01509