/*--------------------------------*- C++ -*----------------------------------*\
  =========                 |
  \\      /  F ield         | OpenFOAM: The Open Source CFD Toolbox
   \\    /   O peration     | Website:  https://openfoam.org
    \\  /    A nd           | Version:  9
     \\/     M anipulation  |
\*---------------------------------------------------------------------------*/
FoamFile
{
    format      ascii;
    class       volScalarField;
    location    "2.6";
    object      nut;
}
// * * * * * * * * * * * * * * * * * * * * * * * * * * * * * * * * * * * * * //

dimensions      [0 2 -1 0 0 0 0];

internalField   nonuniform List<scalar> 
36360
(
0.00246134
0.00212237
0.00127926
0.00113651
0.000427582
0.000380884
0.000237916
0.000228484
0.00127558
0.000538478
0.000414477
0.0002108
0.000231773
0.000157421
0.000171267
0.000159297
0.000237133
0.000237305
0.000148367
0.000148386
0.000136606
0.000136608
0.00016113
0.00016113
0.000539217
0.00127644
0.000210948
0.000414867
0.000157457
0.000231845
0.000159294
0.000171285
0.00212295
0.0024616
0.00113705
0.00127953
0.000380966
0.000427634
0.000228532
0.000237939
0.00378579
0.00337983
0.0032384
0.00284297
0.000643726
0.000566885
0.000563118
0.00049292
0.0024996
0.00180868
0.00195093
0.00119964
0.000418514
0.000278202
0.000336106
0.000199607
0.00140338
0.00140411
0.000603929
0.00060467
0.000181589
0.000181648
0.000138486
0.000138514
0.00180976
0.00250045
0.00120082
0.00195179
0.000278315
0.000418604
0.00019969
0.000336203
0.00338038
0.00378599
0.00284353
0.00323862
0.000566951
0.000643772
0.000492989
0.000563165
0.00453699
0.00414709
0.0042018
0.00380117
0.000736108
0.000657799
0.000697194
0.000618821
0.00333944
0.00282506
0.00295519
0.00236067
0.000521593
0.00040953
0.000477107
0.000352201
0.00264927
0.00264962
0.00210791
0.00210837
0.000340558
0.000340608
0.000263426
0.000263489
0.00282588
0.00334024
0.00236161
0.00295603
0.000409628
0.000521683
0.000352305
0.000477196
0.00414761
0.00453712
0.00380171
0.00420198
0.000657867
0.000736157
0.000618887
0.000697241
0.00504554
0.00467765
0.00481362
0.00443525
0.000789865
0.00071275
0.000766034
0.000688275
0.00393268
0.00351493
0.00366197
0.00320462
0.000584525
0.000488055
0.000556532
0.000453681
0.0033975
0.00339776
0.00306671
0.003067
0.000436609
0.000436649
0.000395808
0.000395851
0.00351561
0.0039334
0.00320537
0.00366274
0.000488147
0.000584617
0.000453775
0.000556624
0.00467808
0.00504553
0.00443573
0.00481369
0.000712821
0.000789915
0.000688345
0.000766084
0.00540014
0.00504824
0.0052388
0.00487972
0.000824499
0.000748491
0.000809012
0.000732492
0.00434292
0.00397263
0.00415704
0.00376678
0.000625061
0.000536108
0.000606986
0.00051493
0.00387469
0.00387492
0.00366112
0.00366136
0.000491073
0.000491111
0.000467386
0.000467424
0.00397323
0.00434357
0.00376742
0.00415772
0.000536197
0.000625156
0.00051502
0.00060708
0.00504856
0.00539993
0.0048801
0.00523869
0.000748563
0.000824549
0.000732564
0.000809063
0.00564063
0.00529884
0.00553226
0.00518603
0.000846782
0.000771522
0.000836888
0.000761294
0.00461699
0.00427221
0.00449395
0.0041381
0.000650869
0.000565698
0.000639447
0.000552692
0.00418324
0.00418345
0.00404522
0.00404544
0.000523483
0.000523521
0.000509324
0.000509361
0.00427276
0.00461756
0.00413868
0.00449456
0.000565789
0.000650965
0.000552782
0.000639542
0.00529904
0.00564022
0.00518628
0.00553195
0.000771593
0.000846829
0.000761366
0.000836937
0.00579589
0.00546005
0.00572685
0.00538842
0.000860512
0.000785702
0.000854505
0.000779499
0.00479174
0.00446158
0.00471423
0.00437756
0.000666628
0.000583414
0.000659751
0.000575715
0.0043777
0.0043779
0.0042913
0.0042915
0.000542568
0.000542605
0.000534298
0.000534336
0.00446209
0.00479225
0.0043781
0.00471477
0.000583506
0.000666727
0.000575806
0.000659848
0.00546015
0.00579531
0.00538857
0.00572635
0.000785774
0.000860558
0.00077957
0.000854551
0.00588964
0.00555716
0.00584862
0.00551469
0.000868397
0.000793832
0.000865023
0.000790353
0.00489637
0.00457482
0.00485063
0.00452517
0.000675638
0.000593421
0.000671786
0.000589152
0.0044942
0.00449439
0.00444292
0.00444311
0.00055325
0.000553289
0.0005487
0.000548738
0.00457532
0.00489684
0.00452568
0.00485113
0.000593515
0.000675739
0.000589246
0.000671886
0.00555719
0.00588894
0.00551475
0.00584797
0.000793905
0.000868441
0.000790425
0.000865067
0.00594143
0.0056106
0.0059192
0.00558767
0.000872448
0.000798001
0.000870775
0.000796278
0.00495368
0.00463713
0.00492908
0.00461019
0.000680287
0.000598555
0.000678363
0.00059643
0.00455871
0.0045589
0.0045306
0.00453079
0.000558707
0.000558746
0.000556448
0.000556487
0.00463762
0.00495414
0.00461068
0.00492955
0.000598651
0.00068039
0.000596526
0.000678465
0.00561059
0.00594065
0.00558768
0.00591845
0.000798075
0.000872492
0.000796351
0.000870819
0.00596624
0.00563606
0.0059559
0.00562544
0.000874127
0.000799727
0.000873491
0.00079907
0.00498086
0.0046671
0.00496949
0.00465434
0.000682273
0.000600761
0.000681508
0.000599905
0.00459017
0.00459036
0.00457656
0.00457675
0.000561056
0.000561096
0.000560139
0.000560179
0.0046676
0.00498132
0.00465484
0.00496995
0.00060086
0.000682379
0.000600003
0.000681613
0.00563604
0.00596542
0.00562542
0.00595508
0.000799802
0.000874171
0.000799144
0.000873534
0.00597388
0.005644
0.00597129
0.00564123
0.000874375
0.00079999
0.000874359
0.000799969
0.00498958
0.00467756
0.00498634
0.00467325
0.000682693
0.000601278
0.000682609
0.000601153
0.00460177
0.00460196
0.00459669
0.00459688
0.000561631
0.000561672
0.000561481
0.000561521
0.00467807
0.00499005
0.00467376
0.00498681
0.000601378
0.0006828
0.000601253
0.000682715
0.00564398
0.00597305
0.00564121
0.00597046
0.000800066
0.000874421
0.000800045
0.000874404
0.00597278
0.00564293
0.00597397
0.00564403
0.000873887
0.000799507
0.000874213
0.00079983
0.00498841
0.00467686
0.00498937
0.00467731
0.000682317
0.000600939
0.000682589
0.00060119
0.0046016
0.00460179
0.0046016
0.00460179
0.000561309
0.00056135
0.00056155
0.000561591
0.00467737
0.00498888
0.00467782
0.00498984
0.00060104
0.000682425
0.000601291
0.000682696
0.00564291
0.00597195
0.00564401
0.00597313
0.000799585
0.000873934
0.000799907
0.000874259
0.00596558
0.0056358
0.00596911
0.00563924
0.000872905
0.000798525
0.000873415
0.000799032
0.00498103
0.00466971
0.00498451
0.0046729
0.000681414
0.000600043
0.000681885
0.000600507
0.00459484
0.00459503
0.00459765
0.00459785
0.000560409
0.00056045
0.000560872
0.000560913
0.00467022
0.00498151
0.00467341
0.00498499
0.000600144
0.000681523
0.000600609
0.000681994
0.00563579
0.00596476
0.00563923
0.00596827
0.000798603
0.000872952
0.00079911
0.000873462
0.00595513
0.00562551
0.0059601
0.00563034
0.000871649
0.000797273
0.000872283
0.000797901
0.0049704
0.00465907
0.0049753
0.00466378
0.000680236
0.000598863
0.000680831
0.000599456
0.00458444
0.00458464
0.00458885
0.00458905
0.000559218
0.00055926
0.000559813
0.000559855
0.00465959
0.00497089
0.0046643
0.00497579
0.000598965
0.000680346
0.000599558
0.000680941
0.00562552
0.00595433
0.00563034
0.00595927
0.000797352
0.000871698
0.00079798
0.000872331
0.0059425
0.00561316
0.00594847
0.00561892
0.000870194
0.000795826
0.000870922
0.000796546
0.00495766
0.00464617
0.00496352
0.0046519
0.000678862
0.000597482
0.000679549
0.000598169
0.00457169
0.00457189
0.00457716
0.00457736
0.000557822
0.000557863
0.000558513
0.000558554
0.0046467
0.00495816
0.00465243
0.00496402
0.000597584
0.000678972
0.000598271
0.000679659
0.00561317
0.00594171
0.00561894
0.00594765
0.000795905
0.000870244
0.000796626
0.000870971
0.00592817
0.00559922
0.00593495
0.00560574
0.000868572
0.000794216
0.000869382
0.000795016
0.00494333
0.00463156
0.00494995
0.0046381
0.000677327
0.000595935
0.000678092
0.000596703
0.00455714
0.00455734
0.00456346
0.00456366
0.000556255
0.000556297
0.000557029
0.000557071
0.00463209
0.00494384
0.00463864
0.00495046
0.000596038
0.000677437
0.000596806
0.000678203
0.00559925
0.0059274
0.00560576
0.00593415
0.000794297
0.000868623
0.000795096
0.000869431
0.00591233
0.00558389
0.00591985
0.0055911
0.000866793
0.000792453
0.000867681
0.00079333
0.00492759
0.00461544
0.0049349
0.00462272
0.00067564
0.000594233
0.000676481
0.000595079
0.00454102
0.00454122
0.00454811
0.00454831
0.00055453
0.000554572
0.000555383
0.000555425
0.00461598
0.00492811
0.00462326
0.00493542
0.000594336
0.000675751
0.000595182
0.000676592
0.00558393
0.00591157
0.00559113
0.00591907
0.000792534
0.000866844
0.000793411
0.000867731
0.00589501
0.00556719
0.00590327
0.00557508
0.000864854
0.000790534
0.000865823
0.00079149
0.00491047
0.00459786
0.00491847
0.00460587
0.000673802
0.000592376
0.000674719
0.0005933
0.00452339
0.00452359
0.00453122
0.00453143
0.000552644
0.000552686
0.000553578
0.00055362
0.0045984
0.004911
0.00460642
0.004919
0.000592479
0.000673913
0.000593403
0.000674831
0.00556724
0.00589427
0.00557513
0.00590251
0.000790616
0.000864907
0.000791572
0.000865874
0.0058762
0.00554911
0.00588521
0.0055577
0.000862752
0.000788454
0.000863803
0.000789491
0.00489196
0.00457881
0.00490066
0.00458756
0.000671807
0.000590357
0.000672803
0.000591362
0.00450423
0.00450444
0.00451283
0.00451304
0.000550594
0.000550636
0.000551611
0.000551654
0.00457936
0.0048925
0.00458811
0.0049012
0.000590461
0.000671919
0.000591466
0.000672916
0.00554918
0.00587549
0.00555776
0.00588447
0.000788537
0.000862805
0.000789573
0.000863855
0.00585588
0.00552963
0.00586565
0.00553892
0.00086048
0.000786209
0.000861617
0.00078733
0.00487201
0.00455823
0.00488143
0.00456774
0.00066965
0.000588171
0.000670729
0.000589261
0.0044835
0.00448371
0.00449289
0.0044931
0.00054837
0.000548413
0.000549476
0.000549518
0.00455878
0.00487255
0.0045683
0.00488198
0.000588275
0.000669763
0.000589365
0.000670842
0.00552971
0.00585518
0.005539
0.00586493
0.000786292
0.000860534
0.000787413
0.00086167
0.00583398
0.00550868
0.00584454
0.00551871
0.000858033
0.00078379
0.000859259
0.000784999
0.00485056
0.00453607
0.00486074
0.00454638
0.000667325
0.00058581
0.000668489
0.000586989
0.00446115
0.00446136
0.00447135
0.00447156
0.000545967
0.00054601
0.000547164
0.000547206
0.00453663
0.00485111
0.00454694
0.00486129
0.000585915
0.000667438
0.000587094
0.000668602
0.00550878
0.00583331
0.00551881
0.00584384
0.000783874
0.000858089
0.000785082
0.000859313
0.00581049
0.00548623
0.00582185
0.00549702
0.000855407
0.000781192
0.000856723
0.000782491
0.00482757
0.0045123
0.00483852
0.00452342
0.000664826
0.00058327
0.000666078
0.00058454
0.00443716
0.00443737
0.00444818
0.0044484
0.000543379
0.000543422
0.000544669
0.000544712
0.00451287
0.00482814
0.00452399
0.00483909
0.000583375
0.00066494
0.000584645
0.000666192
0.00548634
0.00580984
0.00549713
0.00582118
0.000781277
0.000855464
0.000782576
0.000856779
0.00578539
0.00546226
0.00579756
0.00547381
0.000852601
0.000778413
0.000854007
0.000779803
0.00480304
0.00448691
0.00481477
0.00449884
0.000662151
0.000580548
0.000663491
0.000581909
0.0044115
0.00441171
0.00442336
0.00442357
0.000540602
0.000540645
0.000541987
0.00054203
0.00448749
0.00480362
0.00449942
0.00481535
0.000580653
0.000662266
0.000582014
0.000663606
0.0054624
0.00578476
0.00547394
0.00579691
0.000778499
0.000852658
0.000779889
0.000854064
0.00575869
0.00543679
0.00577165
0.00544909
0.000849613
0.000775452
0.00085111
0.000776934
0.00477697
0.00445989
0.00478947
0.00447263
0.0006593
0.000577641
0.000660729
0.000579095
0.00438418
0.0043844
0.00439686
0.00439708
0.000537634
0.000537678
0.000539115
0.000539158
0.00446047
0.00477756
0.00447322
0.00479006
0.000577747
0.000659415
0.000579201
0.000660844
0.00543694
0.00575808
0.00544924
0.00577103
0.000775539
0.000849672
0.00077702
0.000851168
0.00573042
0.00540983
0.00574417
0.00542287
0.00084645
0.000772311
0.000848035
0.000773882
0.00474938
0.00443128
0.00476263
0.00444482
0.000656275
0.000574554
0.00065779
0.000576098
0.00435524
0.00435546
0.00436873
0.00436895
0.000534479
0.000534522
0.000536053
0.000536097
0.00443187
0.00474998
0.00444541
0.00476323
0.00057466
0.000656391
0.000576204
0.000657906
0.00541
0.00572985
0.00542304
0.00574357
0.000772398
0.000846509
0.00077397
0.000848093
0.00570067
0.00538148
0.00571515
0.00539521
0.000843118
0.000769003
0.000844786
0.000770654
0.00472035
0.00440116
0.00473431
0.00441544
0.000653083
0.00057129
0.000654681
0.000572922
0.00432474
0.00432496
0.004339
0.00433922
0.000531139
0.000531183
0.000532806
0.000532849
0.00440176
0.00472097
0.00441604
0.00473493
0.000571397
0.0006532
0.000573029
0.000654797
0.00538167
0.00570012
0.00539539
0.00571458
0.000769091
0.000843179
0.000770742
0.000844846
0.00566951
0.00535182
0.00568469
0.00536621
0.000839628
0.000765547
0.000841375
0.000767273
0.00468997
0.00436959
0.00470461
0.00438459
0.000649732
0.000567856
0.00065141
0.000569573
0.00429275
0.00429297
0.00430775
0.00430797
0.000527621
0.000527665
0.000529376
0.00052942
0.00437019
0.0046906
0.0043852
0.00470524
0.000567963
0.000649849
0.00056968
0.000651526
0.00535203
0.00566899
0.00536641
0.00568415
0.000765636
0.00083969
0.000767362
0.000841436
0.00563695
0.00532084
0.00565283
0.00533589
0.000835988
0.000761937
0.000837809
0.000763741
0.00465822
0.00433661
0.00467354
0.00435232
0.000646226
0.000564258
0.00064798
0.000566056
0.0042593
0.00425952
0.00427503
0.00427525
0.000523932
0.000523976
0.000525772
0.000525816
0.00433722
0.00465886
0.00435293
0.00467418
0.000564365
0.000646343
0.000566164
0.000648098
0.00532107
0.00563646
0.00533611
0.00565231
0.000762027
0.000836051
0.00076383
0.000837871
0.00560301
0.00528854
0.00561959
0.00530426
0.000832206
0.000758182
0.000834097
0.000760057
0.00462512
0.00430222
0.00464113
0.00431865
0.000642571
0.000560501
0.0006444
0.000562378
0.00422438
0.00422461
0.00424085
0.00424108
0.000520076
0.00052012
0.000522
0.000522044
0.00430283
0.00462578
0.00431926
0.00464178
0.000560609
0.000642689
0.000562486
0.000644518
0.00528878
0.00560255
0.0053045
0.0056191
0.000758272
0.00083227
0.000760148
0.00083416
0.0055676
0.00525481
0.00558494
0.00527127
0.000828286
0.000754283
0.000830247
0.000756231
0.00459056
0.00426628
0.00460733
0.00428351
0.000638768
0.000556585
0.000640672
0.000558543
0.00418788
0.00418811
0.00420518
0.00420541
0.000516054
0.000516098
0.000518062
0.000518107
0.0042669
0.00459123
0.00428413
0.00460799
0.000556693
0.000638886
0.000558651
0.000640791
0.00525508
0.00556716
0.00527153
0.00558448
0.000754374
0.00082835
0.000756322
0.000830311
0.00553042
0.00521937
0.0055487
0.00523675
0.000824214
0.000750228
0.000826254
0.000752258
0.00455422
0.00422845
0.00457194
0.00424669
0.000634798
0.000552491
0.00063679
0.000554542
0.00414942
0.00414965
0.00416777
0.004168
0.000511847
0.000511891
0.000513952
0.000513996
0.00422908
0.0045549
0.00424732
0.00457262
0.000552599
0.000634917
0.000554651
0.000636908
0.00521965
0.00553002
0.00523702
0.00554827
0.00075032
0.000824279
0.00075235
0.000826318
0.0054909
0.00518154
0.00551046
0.00520023
0.000819951
0.000745967
0.000822094
0.000748109
0.00451542
0.004188
0.00453449
0.00420768
0.000630617
0.000548172
0.000632723
0.000550345
0.00410824
0.00410848
0.00412808
0.00412831
0.000507404
0.000507448
0.000509636
0.000509681
0.00418864
0.00451611
0.00420832
0.00453518
0.00054828
0.000630736
0.000550453
0.000632841
0.00518184
0.00549052
0.00520053
0.00551005
0.00074606
0.000820017
0.000748201
0.000822159
0.00544801
0.00514028
0.00546941
0.00516084
0.000815423
0.000741428
0.000817711
0.00074372
0.00447306
0.00414375
0.00449409
0.00416552
0.000626139
0.000543533
0.000628407
0.000545882
0.00406309
0.00406332
0.00408511
0.00408535
0.000502624
0.000502669
0.000505042
0.000505087
0.00414438
0.00447375
0.00416616
0.00449478
0.000543641
0.000626258
0.00054599
0.000628526
0.0051406
0.00544767
0.00516116
0.00546904
0.00074152
0.00081549
0.000743812
0.000817777
0.00540026
0.00509412
0.00542433
0.00511737
0.000810499
0.000736486
0.000813006
0.000739
0.00442551
0.00409389
0.00444938
0.00411874
0.000621219
0.000538409
0.000623731
0.000541026
0.0040121
0.00401234
0.00403732
0.00403756
0.000497331
0.000497376
0.000500034
0.000500078
0.00409454
0.00442622
0.00411939
0.00445009
0.000538517
0.000621337
0.000541135
0.00062385
0.00509446
0.00539995
0.0051177
0.00542399
0.000736579
0.000810567
0.000739092
0.000813072
0.00534549
0.00504093
0.00537338
0.005068
0.000804987
0.000730958
0.000807817
0.000733792
0.00437056
0.00403607
0.00439846
0.00406525
0.000615641
0.000532555
0.000618514
0.000535574
0.00395289
0.00395314
0.00398257
0.00398281
0.000491258
0.000491302
0.000494391
0.000494435
0.00403673
0.00437128
0.0040659
0.00439918
0.000532663
0.000615759
0.000535683
0.000618632
0.0050413
0.00534523
0.00506836
0.00537309
0.000731051
0.000805055
0.000733885
0.000807884
0.00528086
0.004978
0.0053141
0.00501034
0.000798622
0.000724612
0.000801915
0.000727887
0.00430533
0.00396737
0.00433879
0.0040024
0.000609105
0.000525625
0.000612501
0.000529233
0.00388273
0.00388298
0.00391824
0.00391849
0.000484033
0.000484078
0.000487795
0.000487839
0.00396805
0.00430608
0.00400307
0.00433953
0.000525733
0.000609224
0.000529341
0.000612619
0.00497841
0.00528066
0.00501073
0.00531386
0.000724706
0.000798691
0.00072798
0.000801984
0.00520287
0.00490158
0.00524326
0.00494125
0.000791096
0.000717166
0.000795007
0.000721032
0.00422579
0.00388447
0.00426704
0.00392703
0.000601171
0.000517145
0.000605338
0.000521598
0.00379932
0.00379958
0.00384168
0.00384194
0.000475195
0.00047524
0.000479825
0.00047987
0.00388519
0.00422659
0.00392773
0.00426782
0.000517255
0.000601291
0.000521707
0.000605457
0.00490205
0.00520275
0.00494169
0.00524308
0.000717262
0.000791168
0.000721126
0.000795078
0.00510987
0.00480467
0.00515746
0.00485593
0.000782402
0.00070802
0.000786832
0.000712876
0.00412578
0.00378595
0.00417815
0.00383611
0.000590882
0.000506432
0.000596414
0.000512102
0.00370388
0.00370416
0.00375158
0.00375185
0.000464326
0.000464372
0.000470006
0.000470051
0.00378671
0.00412665
0.00383685
0.00417899
0.000506543
0.000591005
0.000512212
0.000596536
0.00480523
0.00510985
0.00485644
0.00515738
0.00070812
0.00078248
0.000712974
0.000786906
0.00502263
0.00465938
0.00506198
0.00474182
0.000773447
0.000690287
0.000778116
0.000701574
0.00400616
0.00368637
0.00406604
0.00373301
0.000575226
0.000492914
0.000584044
0.000499983
0.00361208
0.00361235
0.00365453
0.0036548
0.000451787
0.000451833
0.000458146
0.000458192
0.00368712
0.00400707
0.00373378
0.00406695
0.000493026
0.000575351
0.000500095
0.000584169
0.00466005
0.0050228
0.00474244
0.00506203
0.000690393
0.000773535
0.000701676
0.000778198
0.00378496
0.0032861
0.00217511
0.00186168
0.00328253
0.00283686
0.0018134
0.00155447
0.00219503
0.00122545
0.000919948
0.000314839
0.00181966
0.000895243
0.000672916
0.000258053
0.000530707
0.000531634
0.00017952
0.000179624
0.00034526
0.000345802
0.000163796
0.000163837
0.00122734
0.00219641
0.000315367
0.000921277
0.000896713
0.00182072
0.000258288
0.00067409
0.00328707
0.00378542
0.00186268
0.0021756
0.00283766
0.0032829
0.00155527
0.0018138
0.00595169
0.00534739
0.00499251
0.00441725
0.00514441
0.00459689
0.00433837
0.00381789
0.00422379
0.00335122
0.00328121
0.00230086
0.00353846
0.00270372
0.00275293
0.001836
0.00292156
0.00292232
0.00164098
0.0016422
0.00227227
0.00227296
0.00111753
0.00111871
0.00335273
0.00422514
0.00230261
0.00328261
0.00270508
0.00353963
0.00183747
0.00275409
0.00534831
0.00595206
0.0044182
0.00499292
0.00459767
0.00514471
0.00381868
0.00433871
0.00742106
0.00681435
0.00674548
0.00613487
0.00633113
0.00578342
0.00579156
0.0052391
0.00577208
0.00510624
0.00504895
0.00428966
0.0048002
0.00416465
0.00421449
0.00348639
0.00488321
0.00488371
0.00398839
0.00398898
0.00394759
0.00394806
0.00318587
0.00318643
0.00510742
0.00577327
0.00429099
0.00505023
0.00416575
0.00480129
0.00348761
0.00421563
0.00681512
0.00742121
0.00613573
0.00674576
0.00578413
0.00633131
0.00523986
0.00579181
0.00849812
0.0079079
0.00799978
0.00740091
0.00717516
0.00664462
0.00678678
0.00624739
0.00694105
0.0064003
0.00639925
0.00580466
0.00573407
0.0052225
0.00530327
0.00473863
0.00626061
0.006261
0.00563133
0.00563177
0.00509048
0.00509085
0.00457315
0.00457356
0.00640126
0.006942
0.00580572
0.00640033
0.00522343
0.00573502
0.00473964
0.0053043
0.0079084
0.00849789
0.00740156
0.00799975
0.00664516
0.00717507
0.00624803
0.00678684
0.00928318
0.00870818
0.0089226
0.00834049
0.00777996
0.00726455
0.00750318
0.00698077
0.00779275
0.0073224
0.00740204
0.00690122
0.00640336
0.00595994
0.00609757
0.00562489
0.00722214
0.00722246
0.00678433
0.00678469
0.00586532
0.00586565
0.00551475
0.0055151
0.00732317
0.00779344
0.00690209
0.00740287
0.00596075
0.00640415
0.00562576
0.00609844
0.00870832
0.00928246
0.00834081
0.00892212
0.00726487
0.00777952
0.00698121
0.00750291
0.00983302
0.00926888
0.0095835
0.00901444
0.00819814
0.00769322
0.00800892
0.00749929
0.00838605
0.00795609
0.00811711
0.0076694
0.00686293
0.00645782
0.00665533
0.00623348
0.00787664
0.00787691
0.00758081
0.0075811
0.00638215
0.00638244
0.00614954
0.00614985
0.0079567
0.00838649
0.00767009
0.00811767
0.00645853
0.00686356
0.00623424
0.00665604
0.00926865
0.00983179
0.0090144
0.0095825
0.0076933
0.00819734
0.00749949
0.00800828
0.0101977
0.00964068
0.0100346
0.0094744
0.00847238
0.00797405
0.00835003
0.0078488
0.0087779
0.00837155
0.00860271
0.00818581
0.00716245
0.00677947
0.00702895
0.00663613
0.00830394
0.00830417
0.00811279
0.00811304
0.0067145
0.00671477
0.00656627
0.00656655
0.00837203
0.00877811
0.00818635
0.00860303
0.0067801
0.00716296
0.00663681
0.00702952
0.00964015
0.0101961
0.00947402
0.0100331
0.00797392
0.00847126
0.00784877
0.00834904
0.0104243
0.00987157
0.0103247
0.00977
0.00864087
0.00814626
0.00856692
0.00807069
0.00902068
0.00862811
0.0089138
0.00851494
0.00734553
0.00697533
0.00726516
0.00688917
0.00856747
0.00856767
0.00845097
0.00845118
0.00691671
0.00691696
0.0068275
0.00682776
0.0086285
0.00902073
0.00851537
0.00891393
0.00697592
0.00734594
0.00688978
0.00726562
0.00987079
0.0104223
0.00976934
0.0103228
0.00814598
0.00863951
0.00807048
0.00856564
0.0105536
0.0100034
0.0104979
0.00994655
0.00873566
0.00824308
0.00869489
0.00820142
0.00915931
0.00877456
0.00909935
0.00871091
0.00744835
0.00708536
0.00740401
0.00703764
0.00871801
0.00871819
0.00865227
0.00865246
0.00703049
0.00703073
0.00698085
0.0069811
0.00877489
0.00915926
0.00871127
0.00909936
0.00708592
0.00744871
0.00703821
0.0074044
0.0100025
0.0105514
0.00994569
0.0104957
0.0082427
0.00873414
0.00820108
0.00869341
0.0106191
0.0100702
0.0105916
0.0100422
0.00878249
0.00829089
0.00876288
0.00827087
0.00922972
0.00884918
0.00919996
0.00881728
0.00749927
0.00714011
0.00747781
0.00711673
0.00879494
0.00879511
0.00876172
0.0087619
0.00708739
0.00708763
0.00706279
0.00706303
0.00884949
0.00922962
0.0088176
0.00919989
0.00714067
0.00749961
0.00711729
0.00747817
0.0100692
0.0106167
0.0100412
0.0105893
0.00829047
0.00878089
0.00827047
0.00876129
0.0106436
0.0100959
0.0106344
0.0100861
0.00879865
0.00830785
0.00879278
0.0083016
0.00925763
0.0088796
0.00924654
0.0088669
0.00751807
0.00716121
0.00751075
0.00715241
0.00882675
0.00882692
0.00881306
0.00881322
0.00710984
0.00711008
0.00710008
0.00710033
0.00887989
0.00925752
0.00886721
0.00924644
0.00716177
0.00751841
0.00715297
0.00751109
0.0100948
0.0106412
0.0100851
0.010632
0.00830742
0.00879702
0.00830117
0.00879114
0.0106462
0.0100991
0.0106464
0.0100988
0.00879897
0.00830851
0.00879996
0.00830919
0.00926155
0.0088841
0.00926047
0.00888232
0.00751925
0.00716289
0.00751931
0.00716228
0.00883161
0.00883178
0.00882948
0.00882965
0.00711191
0.00711216
0.00711084
0.00711109
0.00888441
0.00926144
0.00888263
0.00926036
0.00716346
0.0075196
0.00716285
0.00751967
0.0100981
0.0106438
0.0100978
0.010644
0.00830809
0.00879734
0.00830876
0.00879831
0.0106347
0.0100881
0.0106407
0.0100937
0.00878867
0.00829856
0.00879384
0.00830351
0.00925098
0.00887382
0.00925623
0.0088786
0.00750954
0.0071534
0.00751422
0.00715767
0.00882152
0.00882169
0.00882594
0.00882611
0.00710261
0.00710286
0.0071065
0.00710676
0.00887413
0.00925089
0.00887892
0.00925614
0.00715397
0.00750991
0.00715825
0.00751459
0.0100871
0.0106323
0.0100927
0.0106383
0.00829815
0.00878706
0.00830309
0.00879219
0.0106156
0.0100695
0.0106249
0.0100785
0.00877276
0.00828303
0.00878038
0.00829042
0.00923267
0.00885543
0.00924128
0.00886369
0.00749412
0.0071379
0.00750129
0.00714478
0.00880308
0.00880325
0.00881103
0.00881121
0.00708712
0.00708737
0.00709369
0.00709394
0.00885575
0.00923259
0.00886402
0.0092412
0.00713848
0.0074945
0.00714536
0.00750167
0.0100685
0.0106133
0.0100775
0.0106225
0.00828264
0.00877117
0.00829001
0.00877875
0.0105918
0.0100463
0.0106032
0.0100573
0.00875326
0.00826398
0.00876251
0.00827296
0.0092096
0.00883209
0.00922034
0.00884257
0.0074751
0.00711864
0.00748389
0.00712721
0.00877958
0.00877976
0.00878979
0.00878997
0.00706776
0.00706802
0.00707607
0.00707632
0.00883243
0.00920954
0.00884291
0.00922028
0.00711924
0.00747549
0.0071278
0.00748428
0.0100453
0.0105895
0.0100564
0.0106009
0.00826361
0.00875169
0.00827258
0.0087609
0.0105647
0.0100198
0.0105776
0.0100324
0.00873111
0.00824235
0.00874161
0.00825255
0.00918314
0.00880527
0.00919547
0.00881738
0.00745345
0.00709665
0.00746348
0.0071065
0.00875251
0.00875269
0.00876439
0.00876457
0.00704561
0.00704587
0.00705523
0.00705549
0.00880561
0.00918311
0.00881773
0.00919543
0.00709726
0.00745386
0.00710711
0.00746388
0.0100188
0.0105624
0.0100314
0.0105753
0.008242
0.00872957
0.00825219
0.00874003
0.0105346
0.00999044
0.010549
0.0100044
0.00870666
0.0082185
0.00871829
0.00822978
0.00915387
0.00877553
0.00916757
0.00878905
0.00742955
0.00707234
0.00744068
0.00708332
0.00872248
0.00872266
0.0087358
0.00873598
0.00702108
0.00702134
0.00703186
0.00703212
0.00877589
0.00915386
0.00878942
0.00916755
0.00707295
0.00742998
0.00708394
0.0074411
0.00998954
0.0105324
0.0100035
0.0105467
0.00821818
0.00870515
0.00822945
0.00871674
0.0105019
0.0099585
0.0105176
0.00997376
0.00868001
0.00819252
0.00869274
0.00820487
0.00912197
0.00874309
0.00913697
0.00875796
0.00740352
0.00704581
0.00741571
0.0070579
0.00868969
0.00868988
0.00870438
0.00870457
0.0069943
0.00699456
0.0070062
0.00700646
0.00874346
0.00912198
0.00875833
0.00913699
0.00704644
0.00740396
0.00705852
0.00741615
0.00995764
0.0104998
0.00997288
0.0105154
0.00819223
0.00867854
0.00820456
0.00869122
0.0104666
0.00992398
0.0104836
0.00994054
0.00865115
0.00816443
0.00866499
0.00817784
0.00908745
0.00870795
0.00910377
0.00872418
0.00737533
0.00701708
0.00738861
0.00703028
0.00865416
0.00865436
0.00867023
0.00867042
0.00696527
0.00696553
0.00697829
0.00697856
0.00870835
0.00908749
0.00872457
0.00910381
0.00701771
0.00737579
0.00703091
0.00738907
0.00992315
0.0104644
0.00993969
0.0104814
0.00816416
0.00864972
0.00817756
0.00866351
0.0104285
0.0098868
0.0104469
0.0099047
0.00862004
0.00813415
0.00863502
0.00814867
0.00905024
0.00867006
0.00906792
0.00868768
0.00734494
0.00698606
0.00735933
0.00700041
0.00861582
0.00861602
0.00863331
0.00863351
0.00693392
0.00693419
0.00694811
0.00694838
0.00867046
0.00905031
0.00868808
0.00906799
0.00698671
0.00734542
0.00700106
0.00735981
0.00988601
0.0104264
0.0099039
0.0104448
0.00813391
0.00861865
0.00814842
0.00863358
0.0103876
0.00984688
0.0104074
0.00986617
0.0085866
0.00810163
0.00860276
0.00811728
0.00901027
0.00862931
0.00902935
0.00864837
0.00731226
0.0069527
0.00732781
0.00696823
0.00857459
0.00857479
0.00859354
0.00859374
0.00690017
0.00690045
0.00691558
0.00691585
0.00862973
0.00901037
0.00864879
0.00902944
0.00695335
0.00731276
0.00696889
0.00732831
0.00984614
0.0103856
0.00986541
0.0104053
0.00810142
0.00858525
0.00811706
0.00860136
0.0103438
0.00980416
0.0103651
0.00982486
0.00855077
0.00806679
0.00856813
0.00808361
0.00896745
0.00858563
0.00898797
0.00860617
0.00727724
0.00691691
0.00729397
0.00693367
0.00853037
0.00853058
0.00855082
0.00855103
0.00686397
0.00686425
0.00688061
0.00688089
0.00858607
0.00896758
0.00860661
0.00898809
0.00691758
0.00727777
0.00693434
0.00729449
0.00980346
0.0103418
0.00982414
0.0103631
0.00806661
0.00854947
0.00808342
0.00856678
0.0102971
0.00975858
0.0103199
0.00978072
0.00851254
0.00802962
0.00853111
0.00804762
0.00892175
0.00853898
0.00894372
0.00856101
0.00723984
0.00687867
0.00725777
0.00689666
0.00848313
0.00848335
0.00850511
0.00850532
0.00682528
0.00682556
0.00684318
0.00684346
0.00853943
0.00892191
0.00856147
0.00894387
0.00687935
0.00724039
0.00689734
0.00725831
0.00975793
0.0102952
0.00978005
0.0103179
0.00802948
0.00851128
0.00804746
0.0085298
0.0102475
0.00971015
0.0102717
0.00973373
0.0084719
0.00799011
0.00849168
0.00800928
0.00887314
0.00848933
0.00889657
0.00851287
0.00720006
0.00683797
0.00721918
0.0068572
0.00843284
0.00843306
0.00845635
0.00845657
0.00678409
0.00678437
0.00680324
0.00680352
0.00848981
0.00887334
0.00851334
0.00889676
0.00683867
0.00720063
0.00685789
0.00721975
0.00970954
0.0102456
0.0097331
0.0102698
0.00799
0.00847069
0.00800916
0.00849041
0.0101949
0.00965888
0.0102206
0.00968388
0.0084289
0.0079483
0.00844985
0.00796862
0.00882167
0.00843672
0.00884653
0.00846174
0.00715793
0.00679484
0.00717823
0.00681528
0.00837954
0.00837977
0.00840456
0.00840478
0.00674043
0.00674072
0.00676081
0.0067611
0.00843721
0.0088219
0.00846224
0.00884676
0.00679555
0.00715853
0.00681599
0.00717882
0.00965832
0.0101932
0.0096833
0.0102188
0.00794823
0.00842773
0.00796853
0.00844864
0.0101396
0.00960485
0.0101667
0.00963122
0.00838363
0.00790429
0.00840571
0.0079257
0.00876739
0.00838119
0.00879366
0.00840767
0.00711354
0.00674934
0.00713495
0.00677096
0.00832326
0.0083235
0.00834977
0.00835
0.00669436
0.00669465
0.00671594
0.00671624
0.00838171
0.00876765
0.00840819
0.00879391
0.00675007
0.00711416
0.00677168
0.00713557
0.00960434
0.0101379
0.0096307
0.0101649
0.00790425
0.00838251
0.00792565
0.00840454
0.0100816
0.00954823
0.01011
0.0095759
0.00833618
0.0078582
0.00835935
0.00788066
0.00871038
0.00832281
0.00873802
0.00835073
0.00706697
0.00670154
0.00708948
0.00672432
0.00826407
0.00826431
0.00829204
0.00829228
0.00664594
0.00664624
0.0066687
0.006669
0.00832335
0.00871068
0.00835126
0.00873831
0.00670228
0.00706762