/*--------------------------------*- C++ -*----------------------------------*\
  =========                 |
  \\      /  F ield         | OpenFOAM: The Open Source CFD Toolbox
   \\    /   O peration     | Website:  https://openfoam.org
    \\  /    A nd           | Version:  9
     \\/     M anipulation  |
\*---------------------------------------------------------------------------*/
FoamFile
{
    format      ascii;
    class       volVectorField;
    location    "4.5";
    object      U;
}
// * * * * * * * * * * * * * * * * * * * * * * * * * * * * * * * * * * * * * //

dimensions      [0 1 -1 0 0 0 0];

internalField   nonuniform List<vector> 
4545
(
(0.222427 -0.733341 -2.30572)
(-0.155067 -0.211257 -0.0112631)
(0.00724832 -0.246322 1.76023e-07)
(-0.155067 -0.21126 0.0112634)
(0.222427 -0.733345 2.30572)
(0.148262 -0.580033 -2.20485)
(-0.129153 -0.317692 -0.014239)
(0.0178277 -0.287571 6.72661e-07)
(-0.129153 -0.317696 0.0142401)
(0.148262 -0.580039 2.20485)
(0.132451 -0.497529 -2.24019)
(-0.13234 -0.341937 -0.0203689)
(0.00873298 -0.305356 1.46927e-06)
(-0.132341 -0.341943 0.0203714)
(0.132449 -0.497539 2.24018)
(0.129549 -0.466064 -2.22836)
(-0.132492 -0.363297 -0.0266093)
(0.00378814 -0.329996 2.7581e-06)
(-0.132493 -0.363305 0.0266147)
(0.129545 -0.466082 2.22835)
(0.125285 -0.441547 -2.21984)
(-0.131353 -0.376922 -0.0309181)
(0.00303332 -0.351157 3.20909e-06)
(-0.131354 -0.376924 0.030932)
(0.125276 -0.441597 2.21983)
(0.121778 -0.425221 -2.2134)
(-0.130398 -0.385129 -0.0336614)
(0.00339556 -0.367 -4.43911e-06)
(-0.130394 -0.385112 0.0337102)
(0.121718 -0.425268 2.20494)
(0.119164 -0.415855 -2.20266)
(-0.129661 -0.390874 -0.0353782)
(0.00400369 -0.378729 1.75912e-05)
(-0.129676 -0.390846 0.0353895)
(0.11912 -0.416011 2.19967)
(0.117103 -0.411033 -2.19826)
(-0.129055 -0.395468 -0.0364136)
(0.0044407 -0.387529 -1.36797e-05)
(-0.12905 -0.395459 0.0365603)
(0.116928 -0.41113 2.16725)
(0.115241 -0.409038 -2.17292)
(-0.128492 -0.399555 -0.0371197)
(0.00464581 -0.394488 -3.26033e-05)
(-0.128468 -0.399598 0.0373986)
(0.11506 -0.409073 2.1269)
(0.113645 -0.409053 -2.16914)
(-0.128009 -0.403541 -0.0374069)
(0.00462795 -0.400371 -4.63107e-05)
(-0.127944 -0.403654 0.0377556)
(0.113488 -0.408862 2.1223)
(0.112066 -0.410423 -2.15513)
(-0.12749 -0.40771 -0.037517)
(0.00445666 -0.405758 -7.08358e-05)
(-0.12738 -0.407762 0.0378887)
(0.11197 -0.410026 2.11764)
(0.110527 -0.412562 -2.11999)
(-0.126929 -0.412246 -0.0376364)
(0.00418368 -0.411064 3.30671e-05)
(-0.126938 -0.412079 0.0376466)
(0.110556 -0.412466 2.15127)
(0.109153 -0.415534 -2.15445)
(-0.126396 -0.416981 -0.0375546)
(0.00383542 -0.41638 7.41472e-05)
(-0.126484 -0.416716 0.037286)
(0.109191 -0.415812 2.18784)
(0.107544 -0.419707 -2.14296)
(-0.12579 -0.421852 -0.0375664)
(0.00351194 -0.421841 4.40031e-05)
(-0.12589 -0.421794 0.0372743)
(0.107495 -0.420055 2.14339)
(0.10596 -0.424083 -2.1038)
(-0.125141 -0.427163 -0.037489)
(0.00322311 -0.42762 -9.33244e-07)
(-0.125185 -0.427272 0.0373666)
(0.105903 -0.424206 2.09847)
(0.104612 -0.4288 -2.1414)
(-0.124532 -0.432963 -0.0369866)
(0.00292965 -0.433606 -8.11275e-05)
(-0.124465 -0.432922 0.0371009)
(0.10438 -0.429055 2.10706)
(0.103262 -0.434049 -2.17607)
(-0.123733 -0.438875 -0.0366372)
(0.00273213 -0.439672 -9.59425e-05)
(-0.123667 -0.438794 0.0367975)
(0.102929 -0.434156 2.10195)
(0.101698 -0.43985 -2.1379)
(-0.12269 -0.444703 -0.0365222)
(0.00268499 -0.445873 -7.67371e-05)
(-0.122646 -0.444848 0.0366387)
(0.101525 -0.439209 2.08225)
(0.100355 -0.444906 -2.08784)
(-0.121555 -0.45078 -0.0362636)
(0.00276672 -0.452104 2.85258e-05)
(-0.121567 -0.450782 0.0361225)
(0.100378 -0.444389 2.1227)
(0.0992888 -0.449532 -2.11787)
(-0.120209 -0.456685 -0.0359773)
(0.00304029 -0.458047 8.85797e-05)
(-0.120307 -0.456483 0.0355755)
(0.099351 -0.449734 2.16723)
(0.0982655 -0.454462 -2.11282)
(-0.118578 -0.461876 -0.0357876)
(0.00358281 -0.463558 3.6664e-05)
(-0.118668 -0.461831 0.0353844)
(0.0982489 -0.454513 2.11344)
(0.0974563 -0.458229 -2.06485)
(-0.116674 -0.466507 -0.0355192)
(0.00441663 -0.468539 4.41438e-05)
(-0.11679 -0.466756 0.0351903)
(0.0974542 -0.458242 2.0842)
(0.0970919 -0.460975 -2.1105)
(-0.114607 -0.470472 -0.0348725)
(0.00554895 -0.472608 -3.51747e-05)
(-0.114603 -0.470666 0.0348349)
(0.0970463 -0.461142 2.13071)
(0.0969857 -0.462767 -2.15441)
(-0.112122 -0.473243 -0.0343434)
(0.00706504 -0.475486 -0.000127867)
(-0.111987 -0.473129 0.0345431)
(0.0967502 -0.463243 2.10026)
(0.0970415 -0.463364 -2.15131)
(-0.109176 -0.474386 -0.033951)
(0.00901315 -0.477009 -4.66298e-05)
(-0.109154 -0.474317 0.0339768)
(0.0968817 -0.463379 2.09653)
(0.0973399 -0.461768 -2.09283)
(-0.105822 -0.473873 -0.0336814)
(0.0114191 -0.476906 0.00013432)
(-0.105966 -0.473924 0.0333149)
(0.097446 -0.461797 2.1489)
(0.098061 -0.457746 -2.06528)
(-0.102103 -0.471531 -0.0333061)
(0.0141665 -0.475004 0.000116948)
(-0.10224 -0.471644 0.0330268)
(0.0981975 -0.457756 2.09033)
(0.0993885 -0.451435 -2.1178)
(-0.0981357 -0.466812 -0.0326079)
(0.0167366 -0.471006 -3.1845e-05)
(-0.0980541 -0.467144 0.032704)
(0.0992833 -0.451755 2.08663)
(0.101152 -0.442206 -2.14154)
(-0.0938563 -0.459584 -0.0318981)
(0.0188835 -0.464442 -0.000130836)
(-0.0935902 -0.459636 0.0323148)
(0.101001 -0.442071 2.08542)
(0.103103 -0.430738 -2.13973)
(-0.0889613 -0.449626 -0.0312455)
(0.0218507 -0.45502 -6.71033e-05)
(-0.088904 -0.449463 0.0316384)
(0.102966 -0.430165 2.08268)
(0.105647 -0.414669 -2.13823)
(-0.0835962 -0.436557 -0.030623)
(0.0254874 -0.442683 -1.71201e-05)
(-0.0836217 -0.436703 0.0309924)
(0.105363 -0.414586 2.09188)
(0.108326 -0.395601 -2.11179)
(-0.0779059 -0.420444 -0.0300671)
(0.0296613 -0.427364 -3.3768e-05)
(-0.077824 -0.420479 0.0303689)
(0.108185 -0.395284 2.08996)
(0.111348 -0.372905 -2.11072)
(-0.0717654 -0.401279 -0.0293842)
(0.0343015 -0.409019 1.84336e-05)
(-0.0717721 -0.401153 0.0294738)
(0.111434 -0.372622 2.13633)
(0.114829 -0.346061 -2.1366)
(-0.0652864 -0.378723 -0.0285121)
(0.0393586 -0.387571 1.92541e-05)
(-0.0652907 -0.378601 0.0286162)
(0.114859 -0.346086 2.13641)
(0.118444 -0.315324 -2.13711)
(-0.0585264 -0.35296 -0.0276657)
(0.0447604 -0.363062 3.00798e-05)
(-0.0585317 -0.352853 0.0277097)
(0.118473 -0.315382 2.13704)
(0.122046 -0.280826 -2.13828)
(-0.0516442 -0.324206 -0.0267298)
(0.0504243 -0.335531 2.24185e-05)
(-0.0516406 -0.32416 0.0267468)
(0.122072 -0.280838 2.13824)
(0.125445 -0.242624 -2.14007)
(-0.0447279 -0.29285 -0.0257318)
(0.0562706 -0.305052 1.15131e-05)
(-0.0447232 -0.292832 0.0257401)
(0.125457 -0.242638 2.14005)
(0.12783 -0.201087 -2.14255)
(-0.0375793 -0.259446 -0.0247071)
(0.0624802 -0.271668 5.23245e-06)
(-0.0375758 -0.259441 0.0247113)
(0.127834 -0.201087 2.14255)
(0.12602 -0.157695 -2.14252)
(-0.0283957 -0.223734 -0.0236564)
(0.0696204 -0.235074 2.01881e-06)
(-0.028394 -0.223732 0.0236583)
(0.12602 -0.157692 2.14252)
(0.141271 -0.577769 -1.75463)
(-0.0948425 -0.310161 0.0127791)
(-0.0361418 -0.346753 1.42538e-07)
(-0.094843 -0.310164 -0.0127789)
(0.14127 -0.577773 1.75463)
(0.131936 -0.491555 -1.59453)
(-0.0912462 -0.384523 0.015347)
(-0.0328126 -0.371302 4.89622e-07)
(-0.0912466 -0.384525 -0.0153463)
(0.131936 -0.491559 1.59453)
(0.13288 -0.465448 -1.57937)
(-0.0956897 -0.395075 0.0081417)
(-0.0384156 -0.378488 9.76552e-07)
(-0.0956903 -0.395078 -0.00814009)
(0.132879 -0.465454 1.57936)
(0.130857 -0.447858 -1.55128)
(-0.0981882 -0.403907 0.00374472)
(-0.0424458 -0.390545 1.62003e-06)
(-0.098189 -0.403912 -0.00374177)
(0.130855 -0.447866 1.55127)
(0.128235 -0.435929 -1.52929)
(-0.0993122 -0.408338 0.0012563)
(-0.0440028 -0.399062 2.24059e-06)
(-0.0993117 -0.408341 -0.00125124)
(0.128225 -0.435938 1.52928)
(0.125736 -0.429123 -1.51092)
(-0.100074 -0.411188 -0.000287118)
(-0.0446106 -0.405136 1.62381e-06)
(-0.100056 -0.41119 0.000292979)
(0.125682 -0.429129 1.51092)
(0.123472 -0.425568 -1.49513)
(-0.100627 -0.413631 -0.00122702)
(-0.0449021 -0.409779 3.92202e-06)
(-0.100321 -0.41363 0.00123481)
(0.123088 -0.425574 1.49515)
(0.121309 -0.424129 -1.48118)
(-0.100935 -0.416068 -0.0018114)
(-0.0451167 -0.41362 7.09162e-07)
(-0.100661 -0.416065 0.00181581)
(0.120881 -0.424132 1.4812)
(0.119402 -0.424165 -1.46858)
(-0.101315 -0.418688 -0.00217163)
(-0.0453849 -0.41715 -1.2408e-06)
(-0.101266 -0.418696 0.00217526)
(0.119197 -0.42418 1.46859)
(0.117248 -0.425304 -1.45695)
(-0.101361 -0.421594 -0.0023914)
(-0.0457311 -0.420646 -2.02913e-06)
(-0.101712 -0.42161 0.00239889)
(0.117562 -0.425328 1.45691)
(0.11537 -0.427293 -1.44607)
(-0.10152 -0.424819 -0.0025222)
(-0.0463157 -0.424259 -3.09128e-06)
(-0.102573 -0.424833 0.00253405)
(0.116501 -0.427318 1.44596)
(0.114196 -0.429983 -1.43566)
(-0.102259 -0.428392 -0.00259038)
(-0.0469093 -0.428079 1.02414e-05)
(-0.102746 -0.428384 0.00261459)
(0.11468 -0.429981 1.4355)
(0.113403 -0.433186 -1.42537)
(-0.103301 -0.432272 -0.00264952)
(-0.0474313 -0.432124 1.02907e-05)
(-0.10252 -0.432242 0.00265298)
(0.112419 -0.433153 1.42532)
(0.112524 -0.436795 -1.41558)
(-0.104239 -0.436411 -0.00268263)
(-0.0479145 -0.436401 7.11033e-07)
(-0.102755 -0.436404 0.00266286)
(0.110715 -0.436808 1.41565)
(0.11098 -0.440771 -1.40589)
(-0.104476 -0.44083 -0.00267973)
(-0.0482693 -0.440918 -6.75915e-06)
(-0.103461 -0.440836 0.00266605)
(0.10971 -0.440806 1.40597)
(0.108855 -0.445027 -1.3964)
(-0.103911 -0.445447 -0.00267552)
(-0.0484852 -0.44559 -1.82108e-05)
(-0.103651 -0.445436 0.0026628)
(0.108499 -0.445027 1.3965)
(0.10799 -0.449376 -1.38703)
(-0.104111 -0.450101 -0.00267895)
(-0.0485753 -0.450302 -2.26179e-05)
(-0.10332 -0.450092 0.00264746)
(0.107037 -0.449354 1.38717)
(0.10753 -0.453662 -1.37781)
(-0.104203 -0.4547 -0.00266237)
(-0.0485092 -0.454967 -1.71944e-05)
(-0.103573 -0.45472 0.0026332)
(0.106648 -0.453659 1.37788)
(0.106446 -0.457794 -1.36883)
(-0.103165 -0.459156 -0.0026225)
(-0.0480205 -0.459456 -1.66295e-06)
(-0.102775 -0.459166 0.00262135)
(0.10579 -0.457778 1.36883)
(0.106714 -0.461561 -1.35981)
(-0.102687 -0.463254 -0.00261422)
(-0.0471503 -0.463579 3.52858e-06)
(-0.101374 -0.463235 0.00260421)
(0.105019 -0.461527 1.35987)
(0.107371 -0.464724 -1.35106)
(-0.101747 -0.466782 -0.00260243)
(-0.045861 -0.467163 -4.74028e-06)
(-0.100125 -0.466778 0.00256781)
(0.105298 -0.464728 1.35117)
(0.107941 -0.467136 -1.34264)
(-0.099775 -0.469608 -0.00256367)
(-0.0439978 -0.470042 -3.15888e-06)
(-0.0984584 -0.469631 0.00254254)
(0.106201 -0.467205 1.34265)
(0.108337 -0.46861 -1.33447)
(-0.0965446 -0.471508 -0.00253997)
(-0.0415584 -0.471977 -9.88501e-06)
(-0.0966323 -0.47151 0.00253589)
(0.108233 -0.468635 1.33438)
(0.11038 -0.468831 -1.32659)
(-0.093607 -0.472204 -0.00252481)
(-0.038556 -0.472732 -2.07994e-05)
(-0.0939499 -0.472194 0.00250304)
(0.110676 -0.468796 1.3266)
(0.113368 -0.467542 -1.31915)
(-0.090171 -0.471482 -0.00249132)
(-0.0347724 -0.472098 -1.04397e-05)
(-0.0893265 -0.471503 0.00246246)
(0.112375 -0.467512 1.31933)
(0.116682 -0.464547 -1.31225)
(-0.0856894 -0.469151 -0.00243443)
(-0.0301739 -0.469821 1.16705e-05)
(-0.0840349 -0.469182 0.00243176)
(0.114851 -0.464543 1.31253)
(0.120645 -0.459653 -1.30593)
(-0.0803736 -0.465011 -0.00239425)
(-0.0248217 -0.465633 1.09821e-05)
(-0.0786912 -0.465017 0.00239055)
(0.118819 -0.459672 1.30626)
(0.125023 -0.452616 -1.30028)
(-0.0739505 -0.458843 -0.00240576)
(-0.0188284 -0.459388 -6.59179e-06)
(-0.0737782 -0.458843 0.00240398)
(0.125004 -0.452692 1.30049)
(0.130073 -0.443265 -1.29539)
(-0.0667369 -0.450524 -0.00244291)
(-0.0121994 -0.451245 -1.70404e-05)
(-0.0681494 -0.450524 0.00244873)
(0.131878 -0.443286 1.2954)
(0.136817 -0.431492 -1.29128)
(-0.0596578 -0.439939 -0.00238304)
(-0.0050056 -0.440996 -4.67375e-06)
(-0.0603048 -0.439938 0.00239539)
(0.137507 -0.431437 1.29118)
(0.144326 -0.417051 -1.28794)
(-0.0520391 -0.426956 -0.00230345)
(0.00283263 -0.428299 4.69585e-06)
(-0.0524989 -0.426959 0.00232371)
(0.144674 -0.417051 1.28775)
(0.151695 -0.399985 -1.28541)
(-0.0433526 -0.411542 -0.00220655)
(0.0114221 -0.413203 4.88799e-06)
(-0.0445297 -0.411529 0.00223443)
(0.152922 -0.399939 1.28516)
(0.160177 -0.380247 -1.28377)
(-0.0347295 -0.393717 -0.00208831)
(0.0205542 -0.395754 1.03277e-05)
(-0.0354311 -0.393695 0.00211779)
(0.160876 -0.380176 1.28354)
(0.168735 -0.357838 -1.28309)
(-0.0255424 -0.373544 -0.0019389)
(0.0300875 -0.376023 1.04379e-05)
(-0.0259465 -0.373517 0.00195825)
(0.169097 -0.357774 1.28294)
(0.177315 -0.332912 -1.28342)
(-0.0162714 -0.351178 -0.00175559)
(0.0398827 -0.354148 9.20412e-06)
(-0.0163112 -0.351152 0.00176698)
(0.17732 -0.332876 1.28337)
(0.185192 -0.305697 -1.28484)
(-0.00673954 -0.326822 -0.00154711)
(0.0497967 -0.33032 6.57656e-06)
(-0.00674115 -0.326805 0.00155366)
(0.185191 -0.305685 1.28483)
(0.192246 -0.276445 -1.28735)
(0.00253498 -0.300744 -0.00133048)
(0.0596727 -0.304775 4.13898e-06)
(0.00253873 -0.300735 0.00133424)
(0.192253 -0.276444 1.28735)
(0.197652 -0.245618 -1.29106)
(0.0114731 -0.273119 -0.00111505)
(0.0695358 -0.277779 2.40155e-06)
(0.0114776 -0.273115 0.00111717)
(0.197659 -0.24562 1.29106)
(0.199939 -0.214024 -1.27772)
(0.020432 -0.243809 -0.00085235)
(0.0795182 -0.249552 1.26828e-06)
(0.0204356 -0.243809 0.000853497)
(0.199944 -0.214026 1.27772)
(0.0927923 -0.531268 -1.46247)
(-0.0492385 -0.332982 0.0183085)
(-0.0299023 -0.377006 1.28625e-07)
(-0.0492388 -0.332984 -0.0183083)
(0.0927919 -0.531271 1.46247)
(0.0849179 -0.46543 -1.29365)
(-0.0469176 -0.396293 0.024614)
(-0.027211 -0.393543 3.94103e-07)
(-0.046918 -0.396295 -0.0246133)
(0.0849174 -0.465434 1.29365)
(0.0815674 -0.453525 -1.26232)
(-0.0495064 -0.406375 0.0186927)
(-0.0307264 -0.397953 7.56227e-07)
(-0.0495069 -0.406377 -0.0186915)
(0.0815664 -0.453529 1.26232)
(0.0783728 -0.442761 -1.22888)
(-0.052051 -0.413773 0.015293)
(-0.0341345 -0.406908 1.22825e-06)
(-0.0520516 -0.413776 -0.0152908)
(0.0783712 -0.442767 1.22888)
(0.0751895 -0.435637 -1.20294)
(-0.0538813 -0.417296 0.013538)
(-0.0361451 -0.41276 1.84833e-06)
(-0.0538816 -0.417299 -0.013534)
(0.075187 -0.435648 1.20293)
(0.0723159 -0.43195 -1.1815)
(-0.0553525 -0.419584 0.0124674)
(-0.0375177 -0.41675 1.57594e-06)
(-0.0553493 -0.419582 -0.0124589)
(0.0723092 -0.431972 1.18149)
(0.0698065 -0.430285 -1.16325)
(-0.0566112 -0.421564 0.0117831)
(-0.0386441 -0.419829 -8.41119e-06)
(-0.0565949 -0.421562 -0.0117559)
(0.0697832 -0.430303 1.16323)
(0.0675682 -0.429925 -1.14728)
(-0.0577404 -0.423589 0.0113309)
(-0.0396575 -0.422541 -6.45849e-06)
(-0.0577175 -0.423596 -0.0113099)
(0.067538 -0.429914 1.14727)
(0.0655097 -0.430522 -1.13306)
(-0.0588055 -0.425816 0.0110322)
(-0.0406364 -0.425201 1.37494e-06)
(-0.0587911 -0.425836 -0.0110296)
(0.0655011 -0.430488 1.13306)
(0.0635456 -0.431856 -1.12011)
(-0.0598267 -0.428322 0.0108001)
(-0.0416217 -0.427985 1.61109e-05)
(-0.059833 -0.428355 -0.0108289)
(0.0635846 -0.431826 1.12013)
(0.0617146 -0.433764 -1.1081)
(-0.0608518 -0.431129 0.0106302)
(-0.0426442 -0.430959 3.89152e-05)
(-0.0608953 -0.431147 -0.0106935)
(0.0617846 -0.433824 1.10812)
(0.0599822 -0.436183 -1.09683)
(-0.0618688 -0.434224 0.0105356)
(-0.0436505 -0.434138 2.05822e-05)
(-0.0618963 -0.4342 -0.0105569)
(0.0599606 -0.436347 1.09678)
(0.0582851 -0.439046 -1.08602)
(-0.062844 -0.437579 0.0104833)
(-0.0445936 -0.437541 -2.36145e-05)
(-0.0628052 -0.437545 -0.0104257)
(0.0581554 -0.439195 1.08594)
(0.056672 -0.442277 -1.07585)
(-0.0637114 -0.441132 0.0104401)
(-0.0454317 -0.441144 -4.89908e-05)
(-0.063624 -0.441134 -0.0103395)
(0.0565052 -0.442316 1.07575)
(0.0551479 -0.445762 -1.06585)
(-0.0643778 -0.444841 0.0103678)
(-0.046103 -0.444893 -3.25652e-05)
(-0.0642968 -0.444872 -0.0102933)
(0.0550366 -0.445715 1.06578)
(0.0537873 -0.449297 -1.05619)
(-0.0648016 -0.448687 0.0102542)
(-0.0465574 -0.44874 -1.18985e-05)
(-0.064746 -0.448696 -0.0102169)
(0.0537752 -0.449286 1.05617)
(0.052796 -0.4528 -1.04683)
(-0.0649704 -0.452544 0.010182)
(-0.0467148 -0.452598 -2.74151e-05)
(-0.0648785 -0.452542 -0.0101352)
(0.0527713 -0.452852 1.04682)
(0.052245 -0.456258 -1.03769)
(-0.0647465 -0.456237 0.0101271)
(-0.0464888 -0.456304 -1.95535e-05)
(-0.0646529 -0.456254 -0.0100928)
(0.0521649 -0.45633 1.03767)
(0.0521308 -0.459481 -1.02889)
(-0.063991 -0.459696 0.0100413)
(-0.0457661 -0.459752 -1.32417e-05)
(-0.0639232 -0.459691 -0.0100035)
(0.0519899 -0.459582 1.02883)
(0.0525928 -0.462286 -1.02024)
(-0.062689 -0.462784 0.0100002)
(-0.0444535 -0.462824 -4.30546e-05)
(-0.0625967 -0.462761 -0.00991062)
(0.0523727 -0.462358 1.02016)
(0.0537305 -0.464558 -1.01193)
(-0.0607023 -0.465282 0.00996542)
(-0.0424534 -0.46533 -5.67226e-05)
(-0.0606055 -0.465283 -0.00985187)
(0.053496 -0.464524 1.01182)
(0.0556163 -0.466103 -1.00393)
(-0.057914 -0.467037 0.00989687)
(-0.0396659 -0.467102 -4.28157e-05)
(-0.0578395 -0.467071 -0.00980662)
(0.0554092 -0.465954 1.00382)
(0.0583111 -0.466633 -0.996229)
(-0.0542506 -0.46792 0.00979293)
(-0.0360153 -0.467979 1.43971e-06)
(-0.0542304 -0.467934 -0.00977535)
(0.0582275 -0.466473 0.996171)
(0.0620098 -0.465962 -0.988919)
(-0.0496935 -0.467723 0.00972305)
(-0.0314266 -0.467754 6.93901e-06)
(-0.0496635 -0.467659 -0.00972834)
(0.0620161 -0.465933 0.988923)
(0.0667862 -0.464008 -0.982073)
(-0.0441392 -0.466213 0.00965949)
(-0.0258162 -0.466253 -2.86964e-05)
(-0.044036 -0.46612 -0.00962024)
(0.0667367 -0.464059 0.982104)
(0.0726196 -0.460601 -0.975718)
(-0.0375082 -0.463252 0.00959774)
(-0.0191401 -0.463349 -5.61179e-05)
(-0.0373683 -0.463209 -0.00951389)
(0.0725071 -0.460558 0.975757)
(0.0795122 -0.455542 -0.969913)
(-0.0298075 -0.458701 0.00954995)
(-0.0113901 -0.458882 -5.16328e-05)
(-0.0296729 -0.458749 -0.00947313)
(0.0794313 -0.455311 0.969975)
(0.0874495 -0.448615 -0.96471)
(-0.0210482 -0.452397 0.00952297)
(-0.0025727 -0.452599 -5.34542e-06)
(-0.0210073 -0.452501 -0.00951081)
(0.0875352 -0.44831 0.964789)
(0.0964544 -0.439641 -0.96015)
(-0.0112668 -0.444196 0.00947884)
(0.00733627 -0.444316 4.08296e-05)
(-0.0113277 -0.44424 -0.00952728)
(0.0966643 -0.439492 0.960218)
(0.106549 -0.428645 -0.956386)
(-0.000556208 -0.434122 0.00939203)
(0.0181447 -0.434238 3.01013e-05)
(-0.000609118 -0.434105 -0.00942603)
(0.106655 -0.42865 0.956408)
(0.117506 -0.41567 -0.953357)
(0.01096 -0.422175 0.0093522)
(0.0297763 -0.422428 2.67664e-05)
(0.0109028 -0.422177 -0.00938074)
(0.117535 -0.415682 0.953343)
(0.129079 -0.400643 -0.95112)
(0.0231648 -0.408312 0.00934)
(0.0421168 -0.408725 4.20118e-05)
(0.0230761 -0.408305 -0.00938892)
(0.129122 -0.400671 0.951098)
(0.141147 -0.383581 -0.949784)
(0.0358224 -0.392595 0.00936173)
(0.0549755 -0.393178 3.12746e-05)
(0.0357548 -0.392554 -0.0093979)
(0.141147 -0.383653 0.949758)
(0.153413 -0.364605 -0.949411)
(0.0487303 -0.37513 0.00939959)
(0.0681346 -0.375928 1.97182e-05)
(0.0486906 -0.375085 -0.0094229)
(0.153395 -0.364676 0.949397)
(0.165528 -0.34386 -0.950113)
(0.0616104 -0.3561 0.0094626)
(0.0813481 -0.357161 6.4337e-06)
(0.0615961 -0.35607 -0.00947026)
(0.165511 -0.343905 0.950111)
(0.177054 -0.321506 -0.952016)
(0.0741569 -0.335737 0.0095329)
(0.0943553 -0.337123 2.20745e-06)
(0.0741525 -0.335726 -0.00953562)
(0.177049 -0.321524 0.952022)
(0.187438 -0.297662 -0.955272)
(0.0860416 -0.314373 0.00961117)
(0.106922 -0.316158 8.99755e-07)
(0.0860415 -0.314371 -0.00961248)
(0.187441 -0.297668 0.95528)
(0.195844 -0.272586 -0.960172)
(0.0970537 -0.292312 0.00974683)
(0.118885 -0.29466 3.02987e-07)
(0.0970554 -0.292313 -0.00974746)
(0.195849 -0.272589 0.960179)
(0.201023 -0.24699 -0.95049)
(0.107283 -0.269394 0.0100374)
(0.130081 -0.272795 6.95761e-08)
(0.107285 -0.269395 -0.0100377)
(0.201027 -0.246992 0.950496)
(0.0646946 -0.520002 -1.29334)
(-0.0288394 -0.34011 0.0160004)
(-0.0249364 -0.381537 1.03057e-07)
(-0.0288397 -0.340112 -0.0160002)
(0.0646943 -0.520004 1.29333)
(0.0600682 -0.458208 -1.1299)
(-0.0279083 -0.3994 0.0220153)
(-0.0240472 -0.398842 3.13188e-07)
(-0.0279086 -0.399401 -0.0220148)
(0.0600678 -0.458211 1.1299)
(0.0570779 -0.449421 -1.09431)
(-0.0296892 -0.410044 0.0164235)
(-0.0269598 -0.404037 5.96893e-07)
(-0.0296897 -0.410046 -0.0164226)
(0.0570771 -0.449425 1.0943)
(0.0540918 -0.441493 -1.05984)
(-0.0319607 -0.417483 0.0133254)
(-0.029936 -0.412661 9.73183e-07)
(-0.0319613 -0.417486 -0.0133238)
(0.0540905 -0.441498 1.05984)
(0.0510608 -0.436538 -1.03308)
(-0.0339995 -0.421242 0.0118056)
(-0.0321089 -0.418223 1.46936e-06)
(-0.0340002 -0.421245 -0.0118028)
(0.0510584 -0.436545 1.03308)
(0.0482015 -0.434197 -1.01107)
(-0.0358551 -0.423697 0.0109132)
(-0.0338833 -0.421904 1.92746e-06)
(-0.0358547 -0.4237 -0.0109083)
(0.0481951 -0.434209 1.01106)
(0.0455789 -0.433319 -0.992427)
(-0.0375706 -0.425722 0.0103537)
(-0.0354775 -0.424669 1.29526e-06)
(-0.0375656 -0.425725 -0.0103447)
(0.0455612 -0.433329 0.992417)
(0.0431528 -0.433374 -0.976231)
(-0.0391906 -0.427677 0.00998902)
(-0.0369891 -0.427063 8.33521e-07)
(-0.0391824 -0.427681 -0.00998063)
(0.0431334 -0.433375 0.976223)
(0.0408676 -0.434119 -0.961907)
(-0.0407577 -0.42974 0.0097393)
(-0.0384745 -0.429388 1.08808e-06)
(-0.0407526 -0.429747 -0.00973619)
(0.0408664 -0.434113 0.961906)
(0.0386795 -0.435414 -0.948968)
(-0.0422899 -0.431989 0.00955367)
(-0.0399535 -0.431801 2.12867e-06)
(-0.0422929 -0.432004 -0.00955879)
(0.0387088 -0.435418 0.948974)
(0.0366002 -0.437165 -0.937033)
(-0.0438043 -0.434451 0.00941561)
(-0.0414367 -0.434366 4.56077e-06)
(-0.0438226 -0.43447 -0.00942621)
(0.036642 -0.437211 0.937038)
(0.0346328 -0.439309 -0.925913)
(-0.045274 -0.437134 0.00931287)
(-0.0428799 -0.4371 3.56392e-06)
(-0.0452882 -0.437149 -0.0093113)
(0.03461 -0.439395 0.925894)
(0.0327691 -0.441781 -0.915368)
(-0.0466556 -0.440023 0.00922786)
(-0.0442334 -0.44001 1.91216e-08)
(-0.046648 -0.440034 -0.00920558)
(0.0326609 -0.441858 0.915324)
(0.0310513 -0.444513 -0.905515)
(-0.0478909 -0.443072 0.0091499)
(-0.0454415 -0.443068 -1.82223e-06)
(-0.0478677 -0.443082 -0.00911566)
(0.0309064 -0.444543 0.905462)
(0.0295215 -0.447409 -0.895921)
(-0.0488851 -0.446227 0.00906668)
(-0.0464207 -0.446229 -2.56262e-07)
(-0.0488628 -0.446238 -0.00903628)
(0.0294059 -0.447402 0.895877)
(0.0282844 -0.450345 -0.886723)
(-0.0495552 -0.449432 0.00897832)
(-0.0470804 -0.449434 1.53997e-06)
(-0.0495417 -0.449438 -0.00895629)
(0.0282195 -0.450353 0.886696)
(0.0275138 -0.45324 -0.877861)
(-0.0498304 -0.452593 0.00890003)
(-0.0473316 -0.452596 -1.81458e-06)
(-0.0498046 -0.4526 -0.00887729)
(0.0274376 -0.453281 0.877841)
(0.0273089 -0.456023 -0.869245)
(-0.0495788 -0.455598 0.00882711)
(-0.0470617 -0.4556 -3.18892e-06)
(-0.0495512 -0.455612 -0.00880419)
(0.0271959 -0.456076 0.869223)
(0.0277455 -0.458562 -0.860978)
(-0.048655 -0.458345 0.00875036)
(-0.0461256 -0.458337 -2.83545e-06)
(-0.048637 -0.458355 -0.00872439)
(0.0275885 -0.458615 0.860948)
(0.0289681 -0.46071 -0.852896)
(-0.0469631 -0.460712 0.00868039)
(-0.0444115 -0.460693 -4.49301e-06)
(-0.0469406 -0.460714 -0.00864452)
(0.028757 -0.460737 0.852853)
(0.0310952 -0.462332 -0.845148)
(-0.0443769 -0.462553 0.00861217)
(-0.0417995 -0.462523 -4.12286e-06)
(-0.0443567 -0.462549 -0.00857245)
(0.0308712 -0.462306 0.845096)
(0.0342274 -0.463265 -0.837703)
(-0.0407671 -0.463721 0.00853795)
(-0.0381641 -0.463682 -2.30432e-06)
(-0.0407553 -0.463709 -0.0085046)
(0.0340365 -0.463187 0.837657)
(0.0384733 -0.463325 -0.830558)
(-0.03603 -0.464071 0.00845896)
(-0.0334025 -0.464024 1.14589e-06)
(-0.0360341 -0.464047 -0.00844078)
(0.0383642 -0.463234 0.830532)
(0.0439845 -0.462357 -0.823769)
(-0.0301003 -0.463447 0.00838714)
(-0.0274292 -0.463391 -3.78965e-07)
(-0.0300952 -0.463406 -0.00837545)
(0.0439247 -0.4623 0.823765)
(0.0508328 -0.460241 -0.817382)
(-0.022895 -0.461691 0.0083193)
(-0.020163 -0.461636 -6.4536e-06)
(-0.0228506 -0.461647 -0.0083012)
(0.0507444 -0.460204 0.817387)
(0.0590232 -0.456838 -0.811418)
(-0.0143574 -0.458675 0.00825311)
(-0.0115702 -0.458631 -1.0029e-05)
(-0.0142873 -0.458643 -0.00822879)
(0.0589093 -0.45677 0.811427)
(0.0685518 -0.452004 -0.805941)
(-0.0044907 -0.454282 0.00818716)
(-0.00166083 -0.454268 -8.00952e-06)
(-0.00442226 -0.45427 -0.00816657)
(0.0684772 -0.45188 0.805956)
(0.0793869 -0.445612 -0.800997)
(0.00667305 -0.448433 0.00812198)
(0.00953035 -0.4485 3.15974e-07)
(0.00669515 -0.448435 -0.0081168)
(0.0794277 -0.445476 0.80102)
(0.0914921 -0.437575 -0.796609)
(0.0190673 -0.441096 0.00810655)
(0.021987 -0.441191 6.87187e-06)
(0.0190407 -0.441097 -0.00811491)
(0.0916229 -0.437503 0.796633)
(0.104795 -0.427842 -0.792827)
(0.0325867 -0.432151 0.00809087)
(0.0356273 -0.432246 8.52366e-06)
(0.0325588 -0.432148 -0.00809861)
(0.104903 -0.427836 0.792836)
(0.119067 -0.416402 -0.789741)
(0.0470317 -0.421548 0.00808748)
(0.0502083 -0.421728 8.46686e-06)
(0.0470015 -0.421547 -0.00809465)
(0.119146 -0.416414 0.789739)
(0.134046 -0.403267 -0.787409)
(0.0621982 -0.409392 0.00810157)
(0.0655197 -0.409686 9.23374e-06)
(0.0621568 -0.409389 -0.00811188)
(0.13412 -0.403289 0.787406)
(0.149471 -0.388477 -0.785932)
(0.0778062 -0.395765 0.00814036)
(0.081312 -0.396201 6.91561e-06)
(0.0777733 -0.395756 -0.00814902)
(0.149518 -0.388509 0.785929)
(0.164986 -0.372119 -0.785399)
(0.0935518 -0.380779 0.00820627)
(0.0972876 -0.381401 4.01179e-06)
(0.0935335 -0.38077 -0.00821219)
(0.165008 -0.372147 0.785399)
(0.180173 -0.354304 -0.78596)
(0.109077 -0.364591 0.0083041)
(0.113109 -0.365454 1.49022e-06)
(0.109071 -0.364585 -0.00830749)
(0.180181 -0.354322 0.785963)
(0.194549 -0.335145 -0.787797)
(0.123986 -0.347392 0.00843425)
(0.128414 -0.34858 2.90176e-07)
(0.123986 -0.34739 -0.00843649)
(0.194553 -0.335153 0.787803)
(0.207544 -0.3147 -0.791136)
(0.137862 -0.329455 0.00859581)
(0.142841 -0.331074 -2.18794e-07)
(0.137864 -0.329456 -0.00859739)
(0.207549 -0.314704 0.791143)
(0.218447 -0.293123 -0.796362)
(0.150329 -0.311024 0.00884472)
(0.156058 -0.31326 -3.57913e-07)
(0.150331 -0.311025 -0.00884576)
(0.218451 -0.293125 0.796368)
(0.226348 -0.270946 -0.789263)
(0.16115 -0.291872 0.00927834)
(0.16772 -0.295197 -3.10419e-07)
(0.161152 -0.291874 -0.00927896)
(0.226352 -0.270948 0.789269)
(0.044296 -0.517035 -1.18522)
(-0.0167176 -0.344827 0.0135964)
(-0.0174115 -0.381138 8.05966e-08)
(-0.0167178 -0.344829 -0.0135963)
(0.0442957 -0.517037 1.18522)
(0.0412631 -0.456724 -1.02859)
(-0.0163719 -0.401392 0.0187534)
(-0.0174436 -0.400152 2.3603e-07)
(-0.0163721 -0.401393 -0.0187531)
(0.0412629 -0.456727 1.02859)
(0.0388797 -0.448334 -0.99226)
(-0.0177268 -0.412078 0.0130149)
(-0.0198625 -0.406343 4.59405e-07)
(-0.0177271 -0.412079 -0.0130142)
(0.0388792 -0.448337 0.992257)
(0.0363183 -0.441449 -0.9581)
(-0.0197026 -0.419449 0.0100116)
(-0.0223636 -0.415197 7.52488e-07)
(-0.0197031 -0.419451 -0.0100104)
(0.0363174 -0.441452 0.958096)
(0.0335698 -0.437462 -0.931442)
(-0.021741 -0.423391 0.00861663)
(-0.0245064 -0.420882 1.12432e-06)
(-0.0217418 -0.423393 -0.00861473)
(0.0335681 -0.437466 0.931437)
(0.0308382 -0.435751 -0.909523)
(-0.0237706 -0.426012 0.00783945)
(-0.0264847 -0.424594 1.52549e-06)
(-0.0237715 -0.426015 -0.00783657)
(0.0308346 -0.435757 0.909517)
(0.0282125 -0.435233 -0.89101)
(-0.0257647 -0.428109 0.00737358)
(-0.028392 -0.42731 1.81307e-06)
(-0.0257648 -0.428112 -0.00736972)
(0.0282048 -0.43524 0.891004)
(0.0256926 -0.435443 -0.874986)
(-0.027725 -0.43003 0.00708132)
(-0.0302701 -0.42958 1.60051e-06)
(-0.0277246 -0.430033 -0.00707752)
(0.0256846 -0.435449 0.87498)
(0.0232564 -0.436181 -0.860884)
(-0.029663 -0.431958 0.0068862)
(-0.0321421 -0.431705 1.24694e-06)
(-0.0296623 -0.431963 -0.00688378)
(0.0232543 -0.436187 0.860881)
(0.0208929 -0.437344 -0.848184)
(-0.0315816 -0.433979 0.00674699)
(-0.0340115 -0.433845 1.02577e-06)
(-0.0315822 -0.433988 -0.00674627)
(0.0208997 -0.437358 0.848182)
(0.0186098 -0.438862 -0.836527)
(-0.0334668 -0.436135 0.00664473)
(-0.0358643 -0.436075 1.43873e-06)
(-0.0334728 -0.43615 -0.00664384)
(0.0186149 -0.438893 0.836523)
(0.0164295 -0.44068 -0.825723)
(-0.0352829 -0.438445 0.00656644)
(-0.0376566 -0.438425 2.63871e-06)
(-0.0352937 -0.438463 -0.00656119)
(0.0164061 -0.440723 0.825709)
(0.0143855 -0.442743 -0.815529)
(-0.0369771 -0.440904 0.00650038)
(-0.0393292 -0.4409 3.97794e-06)
(-0.0369892 -0.44092 -0.00648907)
(0.0143271 -0.44278 0.815506)
(0.0125406 -0.444995 -0.806049)
(-0.0384784 -0.443478 0.00644125)
(-0.0408093 -0.443479 4.95423e-06)
(-0.0384898 -0.443488 -0.0064261)
(0.0124657 -0.445016 0.806021)
(0.0109761 -0.447368 -0.796868)
(-0.0396893 -0.44612 0.00638426)
(-0.0420005 -0.446126 5.22443e-06)
(-0.0397002 -0.446127 -0.00636888)
(0.0109099 -0.447377 0.796841)
(0.00981062 -0.449777 -0.788104)
(-0.0405021 -0.448779 0.00632961)
(-0.0427945 -0.448787 5.0155e-06)
(-0.0405128 -0.448786 -0.00631572)
(0.00975898 -0.44979 0.788081)
(0.00918815 -0.452148 -0.779682)
(-0.0407985 -0.45138 0.00627882)
(-0.0430718 -0.451391 4.36428e-06)
(-0.0408068 -0.451389 -0.00626511)
(0.00913094 -0.452173 0.779661)
(0.00924034 -0.454397 -0.771509)
(-0.0404392 -0.453842 0.00623121)
(-0.0426959 -0.453852 3.93255e-06)
(-0.0404495 -0.453853 -0.00621658)
(0.00916621 -0.454427 0.771487)
(0.0100984 -0.456425 -0.763677)
(-0.0392771 -0.45607 0.00618555)
(-0.0415174 -0.456077 4.19328e-06)
(-0.039293 -0.456079 -0.00616914)
(0.0100038 -0.45645 0.763652)
(0.0119115 -0.458115 -0.756022)
(-0.0371719 -0.457962 0.00614173)
(-0.0393929 -0.457965 4.69521e-06)
(-0.0371908 -0.457965 -0.00612312)
(0.0117963 -0.458123 0.755994)
(0.0148213 -0.459345 -0.748679)
(-0.0339818 -0.459403 0.00609979)
(-0.0361807 -0.4594 5.02692e-06)
(-0.0340027 -0.459397 -0.00608066)
(0.0147014 -0.459328 0.74865)
(0.0189609 -0.459984 -0.741616)
(-0.0295695 -0.460271 0.00605853)
(-0.0317431 -0.460264 4.8053e-06)
(-0.0295899 -0.460254 -0.00604137)
(0.0188563 -0.459945 0.74159)
(0.0244567 -0.459896 -0.734823)
(-0.0238144 -0.460438 0.00601878)
(-0.0259597 -0.460432 4.03167e-06)
(-0.023832 -0.460415 -0.0060054)
(0.0243833 -0.459844 0.734805)
(0.0314257 -0.458948 -0.728342)
(-0.0166197 -0.45978 0.00598292)
(-0.0187313 -0.459779 2.82912e-06)
(-0.0166285 -0.459752 -0.00597234)
(0.0313754 -0.458899 0.728331)
(0.0399424 -0.45702 -0.722205)
(-0.00790873 -0.458174 0.00595189)
(-0.0099816 -0.458184 1.55086e-06)
(-0.00790454 -0.458146 -0.00594179)
(0.0398961 -0.456973 0.722199)
(0.0500356 -0.453991 -0.716433)