/*--------------------------------*- C++ -*----------------------------------*\
  =========                 |
  \\      /  F ield         | OpenFOAM: The Open Source CFD Toolbox
   \\    /   O peration     | Website:  https://openfoam.org
    \\  /    A nd           | Version:  9
     \\/     M anipulation  |
\*---------------------------------------------------------------------------*/
FoamFile
{
    format      ascii;
    class       surfaceScalarField;
    location    "0.9";
    object      phi;
}
// * * * * * * * * * * * * * * * * * * * * * * * * * * * * * * * * * * * * * //

dimensions      [0 3 -1 0 0 0 0];

internalField   nonuniform List<scalar> 
104044
(
-1.23573e-11
-1.04262e-05
-1.05926e-09
1.04239e-05
3.39699e-09
-1.04262e-05
-1.04889e-09
-2.67289e-13
1.04239e-05
3.38359e-09
1.34065e-11
-1.62429e-09
4.1892e-09
-1.6397e-09
8.16675e-13
4.20052e-09
-8.62354e-12
-3.63486e-06
3.63381e-06
-3.63488e-06
-5.64951e-13
3.63382e-06
1.27677e-11
9.56505e-13
1.63401e-13
-1.04262e-05
-1.04683e-09
1.04239e-05
3.38131e-09
-1.04262e-05
-1.04691e-09
4.86212e-14
1.04239e-05
3.38139e-09
-8.46397e-14
-1.64174e-09
4.20585e-09
-1.64231e-09
-3.20504e-14
4.20747e-09
4.61868e-14
-3.63487e-06
3.63382e-06
-3.63487e-06
5.45768e-14
3.63382e-06
-2.42397e-14
-2.04325e-14
1.98006e-14
-1.04262e-05
-1.04711e-09
1.04239e-05
3.38178e-09
-1.04262e-05
-1.04718e-09
-1.48612e-14
1.04239e-05
3.38202e-09
1.58286e-14
-1.64254e-09
4.20814e-09
-1.64266e-09
6.37213e-14
4.20843e-09
2.20919e-14
-3.63487e-06
3.63382e-06
-3.63487e-06
-8.29522e-15
3.63382e-06
1.74908e-14
5.55694e-14
-1.28677e-13
-1.04262e-05
-1.04714e-09
1.04239e-05
3.3821e-09
-1.04262e-05
-1.04718e-09
2.9239e-13
1.04239e-05
3.38241e-09
1.07292e-13
-1.64266e-09
4.20834e-09
-1.64227e-09
-8.03296e-13
4.20719e-09
-1.28978e-14
-3.63487e-06
3.63382e-06
-3.63487e-06
5.87857e-13
3.63382e-06
4.95734e-14
-9.40643e-13
1.23865e-11
-1.04262e-05
-1.04935e-09
1.04239e-05
3.38498e-09
-1.04262e-05
-1.05979e-09
1.04239e-05
3.39852e-09
-1.33972e-11
-1.64038e-09
4.20221e-09
-1.62505e-09
4.19107e-09
8.64483e-12
-3.63488e-06
3.63382e-06
-3.63486e-06
3.63381e-06
-1.27684e-11
-2.40817e-12
-1.04218e-05
-7.26784e-10
1.04197e-05
2.83567e-09
-1.04218e-05
-7.28048e-10
-5.20954e-13
1.04197e-05
2.83555e-09
-3.85389e-12
-8.01781e-10
2.9144e-09
-8.03504e-10
3.52448e-13
2.91319e-09
-1.33692e-12
-3.63301e-06
3.63228e-06
-3.63302e-06
-5.73741e-13
3.63229e-06
-2.90014e-12
3.96612e-15
-9.12352e-14
-1.04218e-05
-7.2787e-10
1.04197e-05
2.83617e-09
-1.04218e-05
-7.28196e-10
-2.23186e-14
1.04197e-05
2.83666e-09
4.09901e-13
-8.04803e-10
2.91488e-09
-8.05868e-10
9.14145e-14
2.91615e-09
-1.18314e-13
-3.63302e-06
3.63229e-06
-3.63302e-06
-1.66655e-14
3.63229e-06
2.84809e-13
8.03331e-14
2.07446e-14
-1.04218e-05
-7.28354e-10
1.04197e-05
2.83697e-09
-1.04218e-05
-7.28402e-10
6.10556e-14
1.04197e-05
2.83713e-09
2.37407e-14
-8.06293e-10
2.91679e-09
-8.06353e-10
-4.62204e-14
2.91698e-09
2.15187e-14
-3.63301e-06
3.63229e-06
-3.63301e-06
5.77757e-14
3.63229e-06
2.41393e-14
-3.48289e-14
1.19125e-13
-1.04218e-05
-7.2833e-10
1.04197e-05
2.83711e-09
-1.04218e-05
-7.28079e-10
5.4646e-13
1.04197e-05
2.83689e-09
-3.68037e-13
-8.06043e-10
2.91672e-09
-8.05077e-10
-3.29428e-13
2.91577e-09
1.51735e-13
-3.63302e-06
3.63229e-06
-3.63302e-06
6.02038e-13
3.63229e-06
-2.35304e-13
2.48021e-14
2.42605e-12
-1.04218e-05
-7.28319e-10
1.04197e-05
2.83645e-09
-1.04218e-05
-7.27095e-10
1.04197e-05
2.83665e-09
3.86841e-12
-8.03852e-10
2.91432e-09
-8.02184e-10
2.91564e-09
1.3578e-12
-3.63302e-06
3.63229e-06
-3.63301e-06
3.63228e-06
2.90939e-12
-1.96652e-12
-1.04174e-05
-8.32549e-10
1.04148e-05
3.40075e-09
-1.04174e-05
-8.33273e-10
-7.33885e-13
1.04149e-05
3.40008e-09
-2.24264e-12
-7.3464e-10
2.97337e-09
-7.35094e-10
-6.92255e-13
2.97268e-09
-7.04757e-13
-3.63155e-06
3.63072e-06
-3.63155e-06
-1.12874e-12
3.63072e-06
-1.06333e-12
-1.01028e-12
-3.91961e-13
-1.04174e-05
-8.32334e-10
1.04149e-05
3.40031e-09
-1.04174e-05
-8.32459e-10
-1.77001e-13
1.04149e-05
3.40034e-09
-2.35213e-13
-7.34271e-10
2.97283e-09
-7.34469e-10
-8.32982e-14
2.97301e-09
-4.84989e-13
-3.63155e-06
3.63072e-06
-3.63155e-06
-1.78381e-13
3.63072e-06
-2.88682e-13
-8.77824e-14
1.19764e-15
-1.04174e-05
-8.32561e-10
1.04149e-05
3.40045e-09
-1.04174e-05
-8.32584e-10
1.77411e-13
1.04149e-05
3.40054e-09
1.11376e-14
-7.3459e-10
2.97321e-09
-7.34624e-10
1.0504e-13
2.97333e-09
2.31268e-15
-3.63155e-06
3.63072e-06
-3.63155e-06
1.82749e-13
3.63072e-06
1.27922e-14
1.11254e-13
3.89101e-13
-1.04174e-05
-8.32525e-10
1.04149e-05
3.40058e-09
-1.04174e-05
-8.32438e-10
7.30116e-13
1.04149e-05
3.40069e-09
2.51844e-13
-7.34567e-10
2.97335e-09
-7.34423e-10
6.99512e-13
2.97337e-09
4.86685e-13
-3.63155e-06
3.63072e-06
-3.63155e-06
1.12225e-12
3.63072e-06
3.08714e-13
1.02176e-12
1.99243e-12
-1.04174e-05
-8.33408e-10
1.04149e-05
3.40056e-09
-1.04174e-05
-8.32729e-10
1.04149e-05
3.40124e-09
2.25627e-12
-7.35295e-10
2.97336e-09
-7.34893e-10
2.97408e-09
7.08657e-13
-3.63155e-06
3.63072e-06
-3.63155e-06
3.63072e-06
1.05784e-12
-1.91533e-12
-1.04119e-05
-1.16831e-09
1.04083e-05
4.71927e-09
-1.04119e-05
-1.16959e-09
-8.25491e-13
1.04083e-05
4.71844e-09
-1.86086e-12
-9.69789e-10
3.94558e-09
-9.70785e-10
-7.77861e-13
3.9449e-09
-2.14056e-13
-3.62975e-06
3.62858e-06
-3.62975e-06
-1.31244e-12
3.62858e-06
-4.35692e-13
-1.20629e-12
-7.86053e-13
-1.04119e-05
-1.16833e-09
1.04083e-05
4.71872e-09
-1.04119e-05
-1.16829e-09
-4.55296e-13
1.04083e-05
4.71853e-09
-5.63568e-13
-9.69707e-10
3.94515e-09
-9.6972e-10
-3.02064e-13
3.94507e-09
-9.07444e-13
-3.62975e-06
3.62858e-06
-3.62975e-06
-4.36891e-13
3.62858e-06
-7.23254e-13
-2.94826e-13
-1.92839e-14
-1.04119e-05
-1.16833e-09
1.04083e-05
4.71847e-09
-1.04119e-05
-1.16833e-09
4.15283e-13
1.04083e-05
4.7185e-09
-9.91208e-15
-9.69793e-10
3.94508e-09
-9.69806e-10
2.86238e-13
3.94513e-09
-1.78567e-14
-3.62975e-06
3.62858e-06
-3.62975e-06
4.02111e-13
3.62858e-06
-8.55091e-15
2.77909e-13
7.41342e-13
-1.04119e-05
-1.16831e-09
1.04083e-05
4.71862e-09
-1.04119e-05
-1.16836e-09
7.9002e-13
1.04083e-05
4.71887e-09
5.46786e-13
-9.69757e-10
3.94523e-09
-9.69765e-10
7.59204e-13
3.9454e-09
8.68205e-13
-3.62975e-06
3.62858e-06
-3.62975e-06
1.26789e-12
3.62858e-06
7.09149e-13
1.1896e-12
1.92865e-12
-1.04119e-05
-1.16962e-09
1.04083e-05
4.71862e-09
-1.04119e-05
-1.16838e-09
1.04083e-05
4.71944e-09
1.8653e-12
-9.70858e-10
3.94521e-09
-9.69909e-10
3.94589e-09
2.1127e-13
-3.62975e-06
3.62858e-06
-3.62975e-06
3.62858e-06
4.12527e-13
-2.21341e-12
-1.04042e-05
-1.63712e-09
1.03993e-05
6.52773e-09
-1.04042e-05
-1.63903e-09
-8.88778e-13
1.03993e-05
6.52664e-09
-2.01346e-12
-1.37607e-09
5.51832e-09
-1.37764e-09
-8.46149e-13
5.51741e-09
1.22428e-13
-3.6272e-06
3.62557e-06
-3.6272e-06
-1.4814e-12
3.62557e-06
-4.61101e-14
-1.36755e-12
-1.04016e-12
-1.04042e-05
-1.6374e-09
1.03993e-05
6.52702e-09
-1.04042e-05
-1.6373e-09
-6.53575e-13
1.03993e-05
6.52668e-09
-9.12119e-13
-1.37622e-09
5.51774e-09
-1.37615e-09
-5.58862e-13
5.51747e-09
-1.17256e-12
-3.6272e-06
3.62557e-06
-3.6272e-06
-6.36327e-13
3.62557e-06
-1.03453e-12
-5.42308e-13
-2.23629e-14
-1.04042e-05
-1.63726e-09
1.03993e-05
6.52652e-09
-1.04042e-05
-1.63727e-09
6.06501e-13
1.03993e-05
6.52652e-09
-2.63141e-14
-1.37614e-09
5.51736e-09
-1.37614e-09
5.0754e-13
5.51737e-09
-2.20832e-14
-3.6272e-06
3.62556e-06
-3.6272e-06
5.91749e-13
3.62556e-06
-2.31919e-14
4.95782e-13
9.87327e-13
-1.04042e-05
-1.6373e-09
1.03993e-05
6.5267e-09
-1.04042e-05
-1.6374e-09
8.45175e-13
1.03993e-05
6.52705e-09
8.62652e-13
-1.37615e-09
5.51752e-09
-1.37622e-09
8.04497e-13
5.51781e-09
1.12208e-12
-3.6272e-06
3.62557e-06
-3.6272e-06
1.42252e-12
3.62557e-06
9.89584e-13
1.32606e-12
2.22655e-12
-1.04042e-05
-1.63903e-09
1.03993e-05
6.52666e-09
-1.04042e-05
-1.63715e-09
1.03993e-05
6.52772e-09
2.01144e-12
-1.37764e-09
5.51749e-09
-1.37611e-09
5.51837e-09
-1.33807e-13
-3.6272e-06
3.62557e-06
-3.6272e-06
3.62557e-06
1.39535e-14
-2.72179e-12
-1.03937e-05
-2.20062e-09
1.03872e-05
8.70521e-09
-1.03937e-05
-2.20326e-09
-9.97849e-13
1.03872e-05
8.70381e-09
-2.4392e-12
-1.88893e-09
7.49717e-09
-1.89117e-09
-9.31727e-13
7.49598e-09
3.99495e-13
-3.62368e-06
3.62147e-06
-3.62368e-06
-1.70667e-12
3.62148e-06
2.33426e-13
-1.55938e-12
-1.2654e-12
-1.03937e-05
-2.20118e-09
1.03872e-05
8.70431e-09
-1.03937e-05
-2.20103e-09
-8.20756e-13
1.03872e-05
8.70385e-09
-1.13319e-12
-1.88934e-09
7.49642e-09
-1.88921e-09
-7.28676e-13
7.49602e-09
-1.42596e-12
-3.62368e-06
3.62147e-06
-3.62367e-06
-8.02954e-13
3.62147e-06
-1.28006e-12
-7.1381e-13
-1.13037e-14
-1.03937e-05
-2.20096e-09
1.03872e-05
8.7036e-09
-1.03937e-05
-2.20096e-09
7.9593e-13
1.03872e-05
8.7036e-09
-1.86927e-14
-1.88916e-09
7.49582e-09
-1.88916e-09
6.93873e-13
7.49582e-09
-1.5193e-14
-3.62367e-06
3.62147e-06
-3.62367e-06
7.72685e-13
3.62147e-06
-1.91525e-14
6.74871e-13
1.23253e-12
-1.03937e-05
-2.20104e-09
1.03872e-05
8.70385e-09
-1.03937e-05
-2.2012e-09
9.72234e-13
1.03872e-05
8.70431e-09
1.09688e-12
-1.88922e-09
7.49603e-09
-1.88935e-09
8.91625e-13
7.49643e-09
1.38823e-12
-3.62368e-06
3.62147e-06
-3.62368e-06
1.65544e-12
3.62147e-06
1.2406e-12
1.51455e-12
2.75807e-12
-1.03937e-05
-2.20328e-09
1.03872e-05
8.70381e-09
-1.03937e-05
-2.20069e-09
1.03872e-05
8.70514e-09
2.43431e-12
-1.89117e-09
7.49599e-09
-1.88899e-09
7.49711e-09
-4.01487e-13
-3.62368e-06
3.62148e-06
-3.62368e-06
3.62147e-06
-2.86934e-13
-3.38582e-12
-1.03799e-05
-2.85335e-09
1.03715e-05
1.12326e-08
-1.03799e-05
-2.85678e-09
-1.15446e-12
1.03715e-05
1.12309e-08
-3.00898e-12
-2.48962e-09
9.82103e-09
-2.49262e-09
-1.07449e-12
9.81953e-09
6.56011e-13
-3.61898e-06
3.61613e-06
-3.61898e-06
-1.98696e-12
3.61613e-06
4.90596e-13
-1.81587e-12
-1.51508e-12
-1.03799e-05
-2.85419e-09
1.03715e-05
1.12315e-08
-1.03799e-05
-2.85398e-09
-1.00104e-12
1.03715e-05
1.12309e-08
-1.37176e-12
-2.49031e-09
9.82009e-09
-2.49013e-09
-9.03301e-13
9.81958e-09
-1.70454e-12
-3.61898e-06
3.61613e-06
-3.61898e-06
-9.7399e-13
3.61613e-06
-1.54598e-12
-8.82639e-13
-8.59925e-15
-1.03799e-05
-2.85387e-09
1.03715e-05
1.12306e-08
-1.03799e-05
-2.85387e-09
9.82568e-13
1.03715e-05
1.12306e-08
-1.4543e-14
-2.49005e-09
9.81929e-09
-2.49005e-09
8.78518e-13
9.81929e-09
-6.90288e-15
-3.61898e-06
3.61613e-06
-3.61898e-06
9.60518e-13
3.61613e-06
-1.34979e-14
8.55628e-13
1.49141e-12
-1.03799e-05
-2.85398e-09
1.03715e-05
1.12309e-08
-1.03799e-05
-2.85419e-09
1.14313e-12
1.03715e-05
1.12315e-08
1.34586e-12
-2.49014e-09
9.81957e-09
-2.49032e-09
1.0411e-12
9.82009e-09
1.68389e-12
-3.61898e-06
3.61613e-06
-3.61898e-06
1.95105e-12
3.61613e-06
1.51736e-12
1.77482e-12
3.40992e-12
-1.03799e-05
-2.85679e-09
1.03715e-05
1.12309e-08
-1.03799e-05
-2.8534e-09
1.03715e-05
1.12325e-08
3.02258e-12
-2.49262e-09
9.81952e-09
-2.4897e-09
9.82094e-09
-6.5879e-13
-3.61899e-06
3.61613e-06
-3.61898e-06
3.61613e-06
-5.45588e-13
-4.16887e-12
-1.03622e-05
-3.61083e-09
1.03516e-05
1.41663e-08
-1.03621e-05
-3.61516e-09
-1.32623e-12
1.03516e-05
1.41642e-08
-3.73e-12
-3.18673e-09
1.25211e-08
-3.19054e-09
-1.23353e-12
1.25193e-08
9.50882e-13
-3.61294e-06
3.60933e-06
-3.61294e-06
-2.29516e-12
3.60933e-06
7.80811e-13
-2.10114e-12
-1.76189e-12
-1.03621e-05
-3.61196e-09
1.03516e-05
1.41649e-08
-1.03621e-05
-3.6117e-09
-1.17025e-12
1.03516e-05
1.41642e-08
-1.61045e-12
-3.18768e-09
1.252e-08
-3.18744e-09
-1.06942e-12
1.25194e-08
-1.99127e-12
-3.61294e-06
3.60933e-06
-3.61294e-06
-1.14161e-12
3.60933e-06
-1.81971e-12
-1.04367e-12
5.91679e-15
-1.03621e-05
-3.61157e-09
1.03516e-05
1.41638e-08
-1.03621e-05
-3.61157e-09
1.17832e-12
1.03516e-05
1.41638e-08
4.09523e-16
-3.18733e-09
1.2519e-08
-3.18733e-09
1.07428e-12
1.2519e-08
4.45405e-15
-3.61294e-06
3.60932e-06
-3.61294e-06
1.15041e-12
3.60932e-06
3.07562e-15
1.04867e-12
1.75882e-12
-1.03621e-05
-3.61171e-09
1.03516e-05
1.41642e-08
-1.03621e-05
-3.61197e-09
1.3271e-12
1.03516e-05
1.41649e-08
1.61286e-12
-3.18745e-09
1.25193e-08
-3.18769e-09
1.22634e-12
1.252e-08
1.98991e-12
-3.61294e-06
3.60933e-06
-3.61294e-06
2.27152e-12
3.60933e-06
1.82244e-12
2.09037e-12
4.16378e-12
-1.03622e-05
-3.61517e-09
1.03516e-05
1.41642e-08
-1.03622e-05
-3.61088e-09
1.03516e-05
1.41662e-08
3.73189e-12
-3.19055e-09
1.25193e-08
-3.18679e-09
1.25211e-08
-9.53018e-13
-3.61294e-06
3.60933e-06
-3.61294e-06
3.60933e-06
-7.97588e-13
-4.99267e-12
-1.034e-05
-4.49099e-09
1.03269e-05
1.75707e-08
-1.03399e-05
-4.49638e-09
-1.53156e-12
1.03269e-05
1.75681e-08
-4.49667e-12
-3.99423e-09
1.56465e-08
-3.99902e-09
-1.41846e-12
1.56443e-08
1.31145e-12
-3.60533e-06
3.60084e-06
-3.60533e-06
-2.66928e-12
3.60084e-06
1.1076e-12
-2.43435e-12
-2.06355e-12
-1.03399e-05
-4.49249e-09
1.03269e-05
1.7569e-08
-1.03399e-05
-4.49217e-09
-1.39279e-12
1.03269e-05
1.75682e-08
-1.87875e-12
-3.99552e-09
1.56451e-08
-3.99524e-09
-1.26341e-12
1.56444e-08
-2.34258e-12
-3.60533e-06
3.60084e-06
-3.60533e-06
-1.36176e-12
3.60084e-06
-2.13542e-12
-1.23771e-12
-2.06968e-14
-1.03399e-05
-4.49201e-09
1.03269e-05
1.75677e-08
-1.03399e-05
-4.49201e-09
1.3503e-12
1.03269e-05
1.75677e-08
-8.07873e-15
-3.99509e-09
1.56439e-08
-3.99509e-09
1.25079e-12
1.56439e-08
-2.2543e-14
-3.60533e-06
3.60083e-06
-3.60533e-06
1.31888e-12
3.60083e-06
-8.65291e-15
1.22e-12
2.01805e-12
-1.03399e-05
-4.49217e-09
1.03269e-05
1.75682e-08
-1.03399e-05
-4.49248e-09
1.51024e-12
1.03269e-05
1.7569e-08
1.86666e-12
-3.99524e-09
1.56444e-08
-3.99552e-09
1.40101e-12
1.56451e-08
2.29502e-12
-3.60533e-06
3.60084e-06
-3.60533e-06
2.60622e-12
3.60084e-06
2.11798e-12
2.40834e-12
5.01886e-12
-1.03399e-05
-4.49636e-09
1.03269e-05
1.75681e-08
-1.034e-05
-4.49105e-09
1.03269e-05
1.75705e-08
4.51662e-12
-3.99901e-09
1.56443e-08
-3.99431e-09
1.56464e-08
-1.31648e-12
-3.60533e-06
3.60084e-06
-3.60533e-06
3.60084e-06
-1.13235e-12
-6.07357e-12
-1.03125e-05
-5.51948e-09
1.02965e-05
2.15415e-08
-1.03125e-05
-5.52602e-09
-1.77098e-12
1.02965e-05
2.15385e-08
-5.44406e-12
-4.93878e-09
1.92966e-08
-4.94466e-09
-1.64661e-12
1.92939e-08
1.66719e-12
-3.5959e-06
3.59038e-06
-3.5959e-06
-3.09702e-12
3.59038e-06
1.45951e-12
-2.83619e-12
-2.38737e-12
-1.03125e-05
-5.52133e-09
1.02965e-05
2.15395e-08
-1.03125e-05
-5.52095e-09
-1.62336e-12
1.02965e-05
2.15386e-08
-2.19658e-12
-4.94041e-09
1.92949e-08
-4.94007e-09
-1.49555e-12
1.9294e-08
-2.72158e-12
-3.5959e-06
3.59038e-06
-3.59589e-06
-1.58552e-12
3.59037e-06
-2.50392e-12
-1.46185e-12
-3.19204e-14
-1.03125e-05
-5.52076e-09
1.02965e-05
2.1538e-08
-1.03125e-05
-5.52075e-09
1.56231e-12
1.02965e-05
2.1538e-08
-3.03834e-14
-4.93989e-09
1.92935e-08
-4.93988e-09
1.44076e-12
1.92935e-08
-2.99113e-14
-3.59589e-06
3.59037e-06
-3.59589e-06
1.53059e-12
3.59037e-06
-2.6991e-14
1.40755e-12
2.33135e-12
-1.03125e-05
-5.52094e-09
1.02965e-05
2.15385e-08
-1.03125e-05
-5.52132e-09
1.75038e-12
1.02965e-05
2.15395e-08
2.15043e-12
-4.94006e-09
1.9294e-08
-4.9404e-09
1.60954e-12
1.92949e-08
2.66693e-12
-3.59589e-06
3.59037e-06
-3.5959e-06
3.03211e-12
3.59038e-06
2.45214e-12
2.78268e-12
6.0652e-12
-1.03125e-05
-5.52601e-09
1.02965e-05
2.15384e-08
-1.03125e-05
-5.51951e-09
1.02965e-05
2.15415e-08
5.45357e-12
-4.94463e-09
1.92939e-08
-4.93884e-09
1.92965e-08
-1.67686e-12
-3.5959e-06
3.59038e-06
-3.5959e-06
3.59038e-06
-1.4975e-12
-7.27577e-12
-1.0279e-05
-6.71757e-09
1.02596e-05
2.61584e-08
-1.0279e-05
-6.72549e-09
-2.03806e-12
1.02596e-05
2.61547e-08
-6.57007e-12
-6.03655e-09
2.35303e-08
-6.04365e-09
-1.89839e-12
2.35271e-08
2.05847e-12
-3.58434e-06
3.57762e-06
-3.58434e-06
-3.57805e-12
3.57762e-06
1.83024e-12
-3.28149e-12
-2.72754e-12
-1.0279e-05
-6.71987e-09
1.02596e-05
2.6156e-08
-1.0279e-05
-6.71942e-09
-1.85262e-12
1.02596e-05
2.61548e-08
-2.51839e-12
-6.03855e-09
2.35283e-08
-6.03815e-09
-1.71924e-12
2.35272e-08
-3.12848e-12
-3.58434e-06
3.57762e-06
-3.58433e-06
-1.81324e-12
3.57761e-06
-2.88803e-12
-1.6825e-12
-2.34016e-14
-1.0279e-05
-6.7192e-09
1.02596e-05
2.61541e-08
-1.0279e-05
-6.7192e-09
1.80509e-12
1.02596e-05
2.61541e-08
-3.28251e-14
-6.03794e-09
2.35266e-08
-6.03794e-09
1.66272e-12
2.35266e-08
-2.34532e-14
-3.58433e-06
3.57761e-06
-3.58433e-06
1.77089e-12
3.57761e-06
-2.69664e-14
1.62932e-12
2.677e-12
-1.0279e-05
-6.71942e-09
1.02596e-05
2.61548e-08
-1.0279e-05
-6.71986e-09
2.01882e-12
1.02596e-05
2.61559e-08
2.47203e-12
-6.03814e-09
2.35272e-08
-6.03855e-09
1.85778e-12
2.35283e-08
3.08355e-12
-3.58433e-06
3.57761e-06
-3.58434e-06
3.51556e-12
3.57762e-06
2.84014e-12
3.23359e-12
7.28074e-12
-1.0279e-05
-6.72547e-09
1.02596e-05
2.61547e-08
-1.0279e-05
-6.71759e-09
1.02596e-05
2.61583e-08
6.57331e-12
-6.04362e-09
2.35271e-08
-6.03658e-09
2.35302e-08
-2.08304e-12
-3.58434e-06
3.57762e-06
-3.58434e-06
3.57762e-06
-1.86878e-12
-8.66962e-12
-1.02384e-05
-8.10859e-09
1.02151e-05
3.15087e-08
-1.02384e-05
-8.11807e-09
-2.35121e-12
1.0215e-05
3.15043e-08
-7.85552e-12
-7.31842e-09
2.8465e-08
-7.32695e-09
-2.18901e-12
2.84612e-08
2.55051e-12
-3.5703e-06
3.56219e-06
-3.5703e-06
-4.12976e-12
3.56219e-06
2.26805e-12
-3.7882e-12
-3.13194e-12
-1.02384e-05
-8.11138e-09
1.0215e-05
3.15058e-08
-1.02384e-05
-8.11085e-09
-2.1215e-12
1.0215e-05
3.15044e-08
-2.88351e-12
-7.32087e-09
2.84625e-08
-7.32039e-09
-1.96438e-12
2.84613e-08
-3.60264e-12
-3.57029e-06
3.56218e-06
-3.57029e-06
-2.07419e-12
3.56218e-06
-3.32189e-12
-1.92374e-12
-4.93848e-15
-1.02384e-05
-8.11059e-09
1.0215e-05
3.15036e-08
-1.02384e-05
-8.11059e-09
2.11028e-12
1.0215e-05
3.15036e-08
-1.84858e-14
-7.32015e-09
2.84605e-08
-7.32015e-09
1.93272e-12
2.84605e-08
-3.14183e-15
-3.57029e-06
3.56217e-06
-3.57029e-06
2.0705e-12
3.56217e-06
-1.25973e-14
1.89706e-12
3.10753e-12
-1.02384e-05
-8.11085e-09
1.0215e-05
3.15044e-08
-1.02384e-05
-8.11139e-09
2.35223e-12
1.0215e-05
3.15058e-08
2.85452e-12
-7.32039e-09
2.84613e-08
-7.32087e-09
2.15318e-12
2.84625e-08
3.58324e-12
-3.57029e-06
3.56218e-06
-3.57029e-06
4.07416e-12
3.56218e-06
3.29511e-12
3.75198e-12
8.67737e-12
-1.02384e-05
-8.11806e-09
1.0215e-05
3.15043e-08
-1.02385e-05
-8.10861e-09
1.02151e-05
3.15087e-08
7.86403e-12
-7.32693e-09
2.84611e-08
-7.31844e-09
2.84649e-08
-2.56272e-12
-3.5703e-06
3.56219e-06
-3.5703e-06
3.56219e-06
-2.30728e-12
-1.02482e-11
-1.01897e-05
-9.71447e-09
1.01618e-05
3.76749e-08
-1.01897e-05
-9.72576e-09
-2.71834e-12
1.01618e-05
3.76697e-08
-9.31478e-12
-8.79671e-09
3.41453e-08
-8.80689e-09
-2.5266e-12
3.41407e-08
3.12008e-12
-3.55339e-06
3.54367e-06
-3.55339e-06
-4.74599e-12
3.54367e-06
2.78469e-12
-4.36385e-12
-3.59559e-12
-1.01897e-05
-9.71788e-09
1.01617e-05
3.76714e-08
-1.01897e-05
-9.71723e-09
-2.43118e-12
1.01617e-05
3.76698e-08
-3.31062e-12
-8.79969e-09
3.41423e-08
-8.79911e-09
-2.2492e-12
3.41408e-08
-4.14336e-12
-3.55338e-06
3.54366e-06
-3.55338e-06
-2.37983e-12
3.54366e-06
-3.82243e-12
-2.20284e-12
1.12207e-14
-1.01897e-05
-9.71693e-09
1.01617e-05
3.76688e-08
-1.01897e-05
-9.71694e-09
2.44506e-12
1.01617e-05
3.76688e-08
2.14028e-15
-8.79883e-09
3.41399e-08
-8.79884e-09
2.25518e-12
3.41399e-08
6.74263e-15
-3.55337e-06
3.54365e-06
-3.55337e-06
2.39264e-12
3.54365e-06
4.88979e-15
2.20627e-12
3.58549e-12
-1.01897e-05
-9.71725e-09
1.01617e-05
3.76698e-08
-1.01897e-05
-9.7179e-09
2.72947e-12
1.01617e-05
3.76714e-08
3.30898e-12
-8.79912e-09
3.41408e-08
-8.79971e-09
2.51013e-12
3.41423e-08
4.13476e-12
-3.55338e-06
3.54366e-06
-3.55338e-06
4.69492e-12
3.54366e-06
3.81522e-12
4.33247e-12
1.02605e-11
-1.01897e-05
-9.72578e-09
1.01618e-05
3.76697e-08
-1.01897e-05
-9.71452e-09
1.01618e-05
3.76749e-08
9.33171e-12
-8.80689e-09
3.41407e-08
-8.79676e-09
3.41453e-08
-3.12853e-12
-3.55339e-06
3.54367e-06
-3.55339e-06
3.54367e-06
-2.82813e-12
-1.20515e-11
-1.01316e-05
-1.15621e-08
1.00984e-05
4.4758e-08
-1.01316e-05
-1.15754e-08
-3.11102e-12
1.00984e-05
4.47519e-08
-1.09718e-11
-1.05016e-08
4.06857e-08
-1.05137e-08
-2.89379e-12
4.06803e-08
3.79557e-12
-3.53317e-06
3.5216e-06
-3.53316e-06
-5.40746e-12
3.5216e-06
3.39973e-12
-4.99875e-12
-4.10067e-12
-1.01316e-05
-1.15662e-08
1.00984e-05
4.47538e-08
-1.01316e-05
-1.15654e-08
-2.78066e-12
1.00984e-05
4.4752e-08
-3.78261e-12
-1.05052e-08
4.06821e-08
-1.05045e-08
-2.57287e-12
4.06804e-08
-4.74232e-12
-3.53316e-06
3.52159e-06
-3.53315e-06
-2.72936e-12
3.52158e-06
-4.38661e-12
-2.52817e-12
1.08091e-14
-1.01315e-05
-1.1565e-08
1.00984e-05
4.47508e-08
-1.01315e-05
-1.1565e-08
2.80521e-12
1.00984e-05
4.47508e-08
8.65471e-15
-1.05042e-08
4.06793e-08
-1.05042e-08
2.59643e-12
4.06793e-08
4.0792e-15
-3.53315e-06
3.52158e-06
-3.53315e-06
2.74799e-12
3.52158e-06
6.60759e-15
2.53814e-12
4.11316e-12
-1.01316e-05
-1.15654e-08
1.00984e-05
4.4752e-08
-1.01316e-05
-1.15662e-08
3.14602e-12
1.00984e-05
4.47538e-08
3.80412e-12
-1.05046e-08
4.06804e-08
-1.05053e-08
2.91592e-12
4.06821e-08
4.76025e-12
-3.53315e-06
3.52158e-06
-3.53316e-06
5.40205e-12
3.52159e-06
4.39459e-12
4.98709e-12
1.20398e-11
-1.01316e-05
-1.15754e-08
1.00984e-05
4.47519e-08
-1.01316e-05
-1.15621e-08
1.00984e-05
4.4758e-08
1.10041e-11
-1.05137e-08
4.06803e-08
-1.05017e-08
4.06857e-08
-3.78664e-12
-3.53316e-06
3.5216e-06
-3.53317e-06
3.5216e-06
-3.4236e-12
-1.39932e-11
-1.00627e-05
-1.36575e-08
1.00236e-05
5.27793e-08
-1.00627e-05
-1.36732e-08
-3.51159e-12
1.00236e-05
5.27722e-08
-1.27985e-11
-1.24519e-08
4.81556e-08
-1.24661e-08
-3.29943e-12
4.81494e-08
4.58601e-12
-3.50914e-06
3.49548e-06
-3.50914e-06
-6.12904e-12
3.49548e-06
4.14982e-12
-5.68615e-12
-4.6523e-12
-1.00627e-05
-1.36624e-08
1.00236e-05
5.27743e-08
-1.00627e-05
-1.36615e-08
-3.16289e-12
1.00236e-05
5.27721e-08
-4.30953e-12
-1.24562e-08
4.81514e-08
-1.24553e-08
-2.94251e-12
4.81494e-08
-5.40048e-12
-3.50913e-06
3.49547e-06
-3.50913e-06
-3.10776e-12
3.49546e-06
-5.01361e-12
-2.89159e-12
1.67606e-14
-1.00627e-05
-1.36611e-08
1.00235e-05
5.27707e-08
-1.00627e-05
-1.36611e-08
3.20388e-12
1.00235e-05
5.27707e-08
6.1247e-15
-1.2455e-08
4.81481e-08
-1.2455e-08
2.97395e-12
4.81481e-08
1.65684e-14
-3.50912e-06
3.49546e-06
-3.50912e-06
3.15426e-12
3.49546e-06
1.18933e-14
2.91908e-12
4.68931e-12
-1.00627e-05
-1.36615e-08
1.00236e-05
5.27721e-08
-1.00627e-05
-1.36624e-08
3.57095e-12
1.00236e-05
5.27743e-08
4.35474e-12
-1.24553e-08
4.81494e-08
-1.24562e-08
3.33111e-12
4.81514e-08
5.45965e-12
-3.50913e-06
3.49546e-06
-3.50913e-06
6.17423e-12
3.49547e-06
5.05456e-12
5.72408e-12
1.39733e-11
-1.00627e-05
-1.36732e-08
1.00236e-05
5.27721e-08
-1.00627e-05
-1.36575e-08
1.00236e-05
5.27792e-08
1.2843e-11
-1.24661e-08
4.81494e-08
-1.24518e-08
4.81556e-08
-4.57484e-12
-3.50914e-06
3.49548e-06
-3.50915e-06
3.49548e-06
-4.1305e-12
-1.61637e-11
-9.98167e-06
-1.6032e-08
9.93586e-06
6.18578e-08
-9.98165e-06
-1.60503e-08
-3.96161e-12
9.93584e-06
6.18496e-08
-1.48228e-11
-1.46653e-08
5.66227e-08
-1.46819e-08
-3.75785e-12
5.66154e-08
5.49849e-12
-3.48081e-06
3.46477e-06
-3.48081e-06
-6.912e-12
3.46477e-06
5.02136e-12
-6.42781e-12
-5.2489e-12
-9.98163e-06
-1.60377e-08
9.93581e-06
6.1852e-08
-9.98161e-06
-1.60366e-08
-3.55864e-12
9.93579e-06
6.18493e-08
-4.8825e-12
-1.46704e-08
5.66176e-08
-1.46694e-08
-3.3279e-12
5.66152e-08
-6.10698e-12
-3.4808e-06
3.46476e-06
-3.48079e-06
-3.49925e-12
3.46475e-06
-5.68974e-12
-3.27068e-12
4.79149e-14
-9.9816e-06
-1.60361e-08
9.93578e-06
6.18477e-08
-9.9816e-06
-1.60361e-08
3.6507e-12
9.93578e-06
6.18477e-08
2.66587e-14
-1.46689e-08
5.66137e-08
-1.46689e-08
3.39305e-12
5.66137e-08
4.60043e-14
-3.48078e-06
3.46474e-06
-3.48078e-06
3.59757e-12
3.46474e-06
3.57549e-14
3.34131e-12
5.30744e-12
-9.98161e-06
-1.60366e-08
9.93579e-06
6.18493e-08
-9.98163e-06
-1.60377e-08
4.01804e-12
9.93581e-06
6.1852e-08
4.94365e-12
-1.46694e-08
5.66152e-08
-1.46704e-08
3.75035e-12
5.66176e-08
6.20005e-12
-3.48079e-06
3.46475e-06
-3.4808e-06
6.9781e-12
3.46476e-06
5.76973e-12
6.50952e-12
1.61118e-11
-9.98165e-06
-1.60503e-08
9.93584e-06
6.18496e-08
-9.98167e-06
-1.60319e-08
9.93586e-06
6.18579e-08
1.48556e-11
-1.46819e-08
5.66154e-08
-1.46653e-08
5.66227e-08
-5.48381e-12
-3.48081e-06
3.46477e-06
-3.48081e-06
3.46478e-06
-4.96927e-12
-1.85131e-11
-9.88689e-06
-1.86957e-08
9.83357e-06
7.20318e-08
-9.88686e-06
-1.87169e-08
-4.4937e-12
9.83354e-06
7.20222e-08
-1.70573e-11
-1.71585e-08
6.61491e-08
-1.71778e-08
-4.21603e-12
6.61406e-08
6.53957e-12
-3.44761e-06
3.42891e-06
-3.44761e-06
-7.76149e-12
3.4289e-06
5.98409e-12
-7.23237e-12
-5.91175e-12
-9.88684e-06
-1.87024e-08
9.83352e-06
7.20247e-08
-9.88682e-06
-1.87011e-08
-4.01438e-12
9.83349e-06
7.20216e-08
-5.49148e-12
-1.71645e-08
6.61431e-08
-1.71633e-08
-3.74006e-12
6.61402e-08
-6.88452e-12
-3.4476e-06
3.42889e-06
-3.44759e-06
-3.9485e-12
3.42888e-06
-6.41874e-12
-3.68167e-12
4.88803e-14
-9.8868e-06
-1.87005e-08
9.83348e-06
7.20197e-08
-9.8868e-06
-1.87005e-08
4.11089e-12
9.83348e-06
7.20197e-08
5.06954e-14
-1.71628e-08
6.61385e-08
-1.71628e-08
3.84752e-12
6.61385e-08
4.40276e-14
-3.44758e-06
3.42887e-06
-3.44758e-06
4.04319e-12
3.42887e-06
5.38841e-14
3.7819e-12
5.97463e-12
-9.88682e-06
-1.87011e-08
9.83349e-06
7.20216e-08
-9.88684e-06
-1.87025e-08
4.5651e-12
9.83352e-06
7.20248e-08
5.57857e-12
-1.71633e-08
6.61403e-08
-1.71645e-08
4.23776e-12
6.61431e-08
6.97003e-12
-3.44759e-06
3.42888e-06
-3.4476e-06
7.8091e-12
3.42889e-06
6.51583e-12
7.3174e-12
1.85118e-11
-9.88686e-06
-1.87169e-08
9.83354e-06
7.20222e-08
-9.88689e-06
-1.86957e-08
9.83357e-06
7.20319e-08
1.71005e-11
-1.71779e-08
6.61407e-08
-1.71585e-08
6.61492e-08
-6.52393e-12
-3.44761e-06
3.42891e-06
-3.44761e-06
3.42891e-06
-5.93124e-12
-2.10549e-11
-9.77675e-06
-2.16592e-08
9.71509e-06
8.33399e-08
-9.77672e-06
-2.16835e-08
-5.00527e-12
9.71506e-06
8.33287e-08
-1.94971e-11
-1.99442e-08
7.67823e-08
-1.99665e-08
-4.6994e-12
7.67724e-08
7.71737e-12
-3.40896e-06
3.38729e-06
-3.40895e-06
-8.68371e-12
3.38729e-06
7.04435e-12
-8.11396e-12
-6.60524e-12
-9.77669e-06
-2.1667e-08
9.71503e-06
8.33314e-08
-9.77667e-06
-2.16654e-08
-4.51677e-12
9.71501e-06
8.33277e-08
-6.15637e-12
-1.99512e-08
7.67751e-08
-1.99498e-08
-4.22143e-12
7.67717e-08
-7.72806e-12
-3.40894e-06
3.38727e-06
-3.40893e-06
-4.45515e-12
3.38726e-06
-7.22643e-12
-4.16183e-12
9.39777e-15
-9.77666e-06
-2.16647e-08
9.71499e-06
8.33255e-08
-9.77666e-06
-2.16647e-08
4.55567e-12
9.71499e-06
8.33255e-08
2.59239e-14
-1.99491e-08
7.67696e-08
-1.99491e-08
4.2973e-12
7.67696e-08
4.65064e-15
-3.40892e-06
3.38725e-06
-3.40892e-06
4.48834e-12
3.38725e-06
3.07237e-14
4.22539e-12
6.64803e-12
-9.77667e-06
-2.16654e-08
9.71501e-06
8.33278e-08
-9.77669e-06
-2.1667e-08
5.09768e-12
9.71503e-06
8.33315e-08
6.25192e-12
-1.99498e-08
7.67717e-08
-1.99512e-08
4.80424e-12
7.67751e-08
7.78665e-12
-3.40893e-06
3.38726e-06
-3.40894e-06
8.72297e-12
3.38727e-06
7.30552e-12
8.17795e-12
2.11219e-11
-9.77672e-06
-2.16836e-08
9.71506e-06
8.33288e-08
-9.77675e-06
-2.16592e-08
9.71509e-06
8.334e-08
1.95768e-11
-1.99665e-08
7.67725e-08
-1.99443e-08
7.67824e-08
-7.67638e-12
-3.40895e-06
3.38729e-06
-3.40896e-06
3.38729e-06
-7.03802e-12
-2.37142e-11
-9.64962e-06
-2.49207e-08
9.57879e-06
9.57752e-08
-9.64959e-06
-2.49485e-08
-5.53167e-12
9.57875e-06
9.57622e-08
-2.21488e-11
-2.30207e-08
8.85145e-08
-2.30462e-08
-5.27658e-12
8.8503e-08
9.05815e-12
-3.36426e-06
3.33933e-06
-3.36426e-06
-9.66996e-12
3.33933e-06
8.21582e-12
-9.06061e-12
-7.33733e-12
-9.64955e-06
-2.49296e-08
9.57872e-06
9.5765e-08
-9.64953e-06
-2.49277e-08
-5.03299e-12
9.57869e-06
9.57606e-08
-6.87293e-12
-2.30287e-08
8.85057e-08
-2.3027e-08
-4.73462e-12
8.85018e-08
-8.61764e-12
-3.36424e-06
3.33931e-06
-3.36423e-06
-4.96806e-12
3.3393e-06
-8.0882e-12
-4.67025e-12
-1.42725e-14
-9.64951e-06
-2.49269e-08
9.57867e-06
9.5758e-08
-9.64951e-06
-2.49269e-08
5.016e-12
9.57867e-06
9.5758e-08
-1.08836e-14
-2.30262e-08
8.84993e-08
-2.30262e-08
4.7424e-12
8.84993e-08
-1.87488e-14
-3.36422e-06
3.33929e-06
-3.36422e-06
4.94804e-12
3.33929e-06
-1.83592e-15
4.67026e-12
7.29669e-12
-9.64953e-06
-2.49277e-08
9.57869e-06
9.57606e-08
-9.64956e-06
-2.49296e-08
5.50902e-12
9.57872e-06
9.5765e-08
6.89612e-12
-2.3027e-08
8.85018e-08
-2.30287e-08
5.20865e-12
8.85058e-08
8.60727e-12
-3.36423e-06
3.3393e-06
-3.36424e-06
9.63891e-12
3.33931e-06
8.11212e-12
9.08014e-12
2.38336e-11
-9.64959e-06
-2.49485e-08
9.57875e-06
9.57622e-08
-9.64962e-06
-2.49208e-08
9.57879e-06
9.57751e-08
2.21776e-11
-2.30463e-08
8.8503e-08
-2.30208e-08
8.85145e-08
-9.0145e-12
-3.36426e-06
3.33933e-06
-3.36426e-06
3.33933e-06
-8.30462e-12
-2.66065e-11
-9.5038e-06
-2.84836e-08
9.42296e-06
1.09351e-07
-9.50377e-06
-2.85151e-08
-6.23004e-12
9.42292e-06
1.09336e-07
-2.49408e-11
-2.64055e-08
1.01414e-07
-2.64345e-08
-5.86159e-12
1.01401e-07
1.05037e-11
-3.31291e-06
3.28442e-06
-3.31291e-06
-1.07072e-11
3.28442e-06
9.53256e-12
-1.00624e-11
-8.14378e-12
-9.50373e-06
-2.84937e-08
9.42289e-06
1.09339e-07
-9.5037e-06
-2.84915e-08
-5.57895e-12
9.42286e-06
1.09334e-07
-7.62409e-12
-2.64146e-08
1.01404e-07
-2.64126e-08
-5.25499e-12
1.01399e-07
-9.56129e-12
-3.3129e-06
3.2844e-06
-3.31288e-06
-5.50397e-12
3.28438e-06
-8.99217e-12
-5.18993e-12
-2.27267e-14
-9.50368e-06
-2.84906e-08
9.42284e-06
1.09331e-07
-9.50368e-06
-2.84906e-08
5.52864e-12
9.42284e-06
1.09331e-07
-3.22288e-14
-2.64118e-08
1.01396e-07
-2.64118e-08
5.20047e-12
1.01396e-07
-3.10548e-14
-3.31287e-06
3.28437e-06
-3.31287e-06
5.44674e-12
3.28437e-06
-3.01434e-14
5.12465e-12
8.03802e-12
-9.5037e-06
-2.84916e-08
9.42286e-06
1.09334e-07
-9.50373e-06
-2.84937e-08
6.11448e-12
9.42289e-06
1.09339e-07
7.5432e-12
-2.64126e-08
1.01399e-07
-2.64146e-08
5.66496e-12
1.01404e-07
9.4921e-12
-3.31288e-06
3.28438e-06
-3.3129e-06
1.06048e-11
3.2844e-06
8.92955e-12
9.98041e-12
2.68046e-11
-9.50377e-06
-2.85152e-08
9.42292e-06
1.09336e-07
-9.50381e-06
-2.84838e-08
9.42296e-06
1.09351e-07
2.49224e-11
-2.64346e-08
1.01401e-07
-2.64057e-08
1.01414e-07
-1.04468e-11
-3.31291e-06
3.28442e-06
-3.31292e-06
3.28442e-06
-9.76005e-12
-3.02767e-11
-9.33767e-06
-3.23352e-08
9.24601e-06
1.2402e-07
-9.33763e-06
-3.23705e-08
-6.90589e-12
9.24597e-06
1.24003e-07
-2.79809e-11
-3.00774e-08
1.154e-07
-3.01101e-08
-6.4798e-12
1.15384e-07
1.16181e-11
-3.25433e-06
3.22198e-06
-3.25433e-06
-1.18745e-11
3.22198e-06
1.09554e-11
-1.11405e-11
-8.95155e-12
-9.33759e-06
-3.23464e-08
9.24593e-06
1.24006e-07
-9.33755e-06
-3.23439e-08
-6.09137e-12
9.2459e-06
1.24e-07
-8.42219e-12
-3.00876e-08
1.15387e-07
-3.00853e-08
-5.80223e-12
1.15382e-07
-1.05439e-11
-3.25431e-06