/*--------------------------------*- C++ -*----------------------------------*\
  =========                 |
  \\      /  F ield         | OpenFOAM: The Open Source CFD Toolbox
   \\    /   O peration     | Website:  https://openfoam.org
    \\  /    A nd           | Version:  9
     \\/     M anipulation  |
\*---------------------------------------------------------------------------*/
FoamFile
{
    format      ascii;
    class       volVectorField;
    location    "0.9";
    object      U;
}
// * * * * * * * * * * * * * * * * * * * * * * * * * * * * * * * * * * * * * //

dimensions      [0 1 -1 0 0 0 0];

internalField   nonuniform List<vector> 
36360
(
(2.98581e-06 -0.0198073 -0.936527)
(2.96251e-06 -0.0198072 -7.33116e-09)
(4.16498e-06 -0.0198145 -0.945311)
(4.18565e-06 -0.0198145 8.26467e-09)
(5.22615e-07 -0.00690504 -0.92409)
(5.03012e-07 -0.00690497 -5.33909e-09)
(1.0467e-06 -0.0069092 -0.93247)
(1.0501e-06 -0.00690922 7.97707e-09)
(2.95844e-06 -0.0198071 -7.14327e-11)
(2.95856e-06 -0.0198071 1.19115e-10)
(4.19181e-06 -0.0198145 4.30076e-10)
(4.19355e-06 -0.0198145 -6.92674e-11)
(4.9949e-07 -0.00690495 -3.04683e-10)
(4.9927e-07 -0.00690494 5.41022e-11)
(1.05079e-06 -0.00690922 5.47713e-10)
(1.05093e-06 -0.00690922 -2.33103e-11)
(2.95903e-06 -0.0198071 4.52181e-11)
(2.95925e-06 -0.0198071 -1.61333e-12)
(4.19422e-06 -0.0198145 -1.09324e-11)
(4.19451e-06 -0.0198145 4.45801e-11)
(4.99387e-07 -0.00690494 3.94645e-11)
(4.99427e-07 -0.00690494 1.02976e-11)
(1.051e-06 -0.00690922 1.45097e-13)
(1.05108e-06 -0.00690922 3.59087e-11)
(2.95921e-06 -0.0198071 -8.18731e-11)
(2.95944e-06 -0.0198071 1.03124e-10)
(4.19443e-06 -0.0198145 9.90059e-11)
(4.19317e-06 -0.0198145 -4.08908e-10)
(4.99394e-07 -0.00690494 -9.76714e-12)
(4.99674e-07 -0.00690495 3.37689e-10)
(1.05115e-06 -0.00690922 5.58191e-11)
(1.05114e-06 -0.00690922 -5.2351e-10)
(2.96378e-06 -0.0198072 7.36289e-09)
(2.98724e-06 -0.0198073 0.936527)
(4.18737e-06 -0.0198145 -8.25146e-09)
(4.1669e-06 -0.0198145 0.945311)
(5.03258e-07 -0.00690497 5.3649e-09)
(5.22913e-07 -0.00690504 0.92409)
(1.05055e-06 -0.00690922 -7.96818e-09)
(1.04721e-06 -0.00690921 0.93247)
(2.23362e-06 -0.0197994 -0.935815)
(2.23215e-06 -0.0197994 -1.78804e-09)
(2.41093e-06 -0.0198032 -0.935996)
(2.40925e-06 -0.0198033 -2.07207e-09)
(2.40271e-07 -0.00690203 -0.923397)
(2.34027e-07 -0.00690204 -1.18611e-09)
(3.1542e-07 -0.00690339 -0.923573)
(3.09004e-07 -0.00690342 -1.71613e-09)
(2.23252e-06 -0.0197994 -4.16381e-10)
(2.23329e-06 -0.0197994 -7.13287e-11)
(2.41206e-06 -0.0198033 4.08931e-10)
(2.41426e-06 -0.0198033 2.61251e-10)
(2.32833e-07 -0.00690204 -4.69626e-10)
(2.32939e-07 -0.00690204 -8.95235e-11)
(3.09287e-07 -0.00690342 1.35584e-10)
(3.1017e-07 -0.00690342 1.90153e-10)
(2.2337e-06 -0.0197994 -4.13923e-12)
(2.23383e-06 -0.0197994 5.21619e-11)
(2.41521e-06 -0.0198033 7.7791e-11)
(2.41538e-06 -0.0198033 -2.22602e-11)
(2.33044e-07 -0.00690204 -1.05499e-12)
(2.33065e-07 -0.00690204 5.2239e-11)
(3.10549e-07 -0.00690342 7.16359e-11)
(3.10577e-07 -0.00690342 -1.42137e-11)
(2.23368e-06 -0.0197994 1.11016e-10)
(2.23313e-06 -0.0197994 4.48418e-10)
(2.41476e-06 -0.0198033 -2.10297e-10)
(2.41285e-06 -0.0198033 -3.71261e-10)
(2.32997e-07 -0.00690204 1.35458e-10)
(2.32927e-07 -0.00690205 5.05858e-10)
(3.1025e-07 -0.00690343 -1.34896e-10)
(3.09414e-07 -0.00690343 -9.11254e-11)
(2.23292e-06 -0.0197994 1.81396e-09)
(2.23451e-06 -0.0197994 0.935815)
(2.41025e-06 -0.0198033 2.09447e-09)
(2.41207e-06 -0.0198033 0.935996)
(2.34159e-07 -0.00690205 1.21398e-09)
(2.40452e-07 -0.00690203 0.923397)
(3.09174e-07 -0.00690342 1.73886e-09)
(3.15644e-07 -0.00690339 0.923573)
(2.64273e-06 -0.0197908 -0.935083)
(2.63937e-06 -0.0197908 -1.73604e-09)
(2.32804e-06 -0.0197953 -0.935278)
(2.3249e-06 -0.0197953 -1.87262e-09)
(2.47853e-07 -0.00689921 -0.922683)
(2.39799e-07 -0.00689922 -9.80074e-10)
(2.2372e-07 -0.00690067 -0.922873)
(2.16388e-07 -0.00690068 -1.16067e-09)
(2.63851e-06 -0.0197908 -8.335e-10)
(2.63872e-06 -0.0197908 -4.11182e-10)
(2.32413e-06 -0.0197953 -6.93049e-10)
(2.32452e-06 -0.0197953 -2.38616e-10)
(2.37562e-07 -0.00689922 -8.79925e-10)
(2.37424e-07 -0.00689922 -4.57086e-10)
(2.1442e-07 -0.00690068 -7.34208e-10)
(2.14377e-07 -0.00690068 -2.8299e-10)
(2.63893e-06 -0.0197908 -1.24734e-10)
(2.639e-06 -0.0197908 1.27057e-10)
(2.32481e-06 -0.0197953 -5.6609e-11)
(2.32491e-06 -0.0197953 8.285e-11)
(2.37492e-07 -0.00689922 -1.29936e-10)
(2.37501e-07 -0.00689922 1.34893e-10)
(2.14456e-07 -0.00690067 -5.93489e-11)
(2.14471e-07 -0.00690068 8.835e-11)
(2.63892e-06 -0.0197908 4.08942e-10)
(2.63883e-06 -0.0197909 8.27724e-10)
(2.32481e-06 -0.0197953 2.60223e-10)
(2.32458e-06 -0.0197953 7.05871e-10)
(2.37449e-07 -0.00689922 4.59747e-10)
(2.37606e-07 -0.00689922 8.77672e-10)
(2.1442e-07 -0.00690068 3.08691e-10)
(2.1449e-07 -0.00690068 7.52618e-10)
(2.63977e-06 -0.0197908 1.74846e-09)
(2.64317e-06 -0.0197908 0.935083)
(2.32548e-06 -0.0197953 1.88471e-09)
(2.32871e-06 -0.0197953 0.935278)
(2.39868e-07 -0.00689922 9.79494e-10)
(2.47957e-07 -0.00689921 0.922683)
(2.16494e-07 -0.00690068 1.16377e-09)
(2.23884e-07 -0.00690067 0.922873)
(3.76266e-06 -0.0197795 -0.934322)
(3.75824e-06 -0.0197795 -1.80606e-09)
(3.13345e-06 -0.0197856 -0.934515)
(3.12968e-06 -0.0197856 -1.73654e-09)
(3.6946e-07 -0.00689551 -0.921942)
(3.58406e-07 -0.00689551 -7.72434e-10)
(2.99402e-07 -0.00689752 -0.92213)
(2.9009e-07 -0.00689753 -8.62696e-10)
(3.75705e-06 -0.0197795 -1.08152e-09)
(3.75693e-06 -0.0197795 -7.07631e-10)
(3.12866e-06 -0.0197856 -9.68394e-10)
(3.12868e-06 -0.0197856 -5.70838e-10)
(3.55319e-07 -0.00689551 -1.13634e-09)
(3.5492e-07 -0.00689551 -7.54888e-10)
(2.87474e-07 -0.00689753 -1.00896e-09)
(2.87179e-07 -0.00689753 -6.15821e-10)
(3.75695e-06 -0.0197795 -2.64532e-10)
(3.75697e-06 -0.0197795 2.1482e-10)
(3.12878e-06 -0.0197856 -1.98145e-10)
(3.12883e-06 -0.0197856 1.74564e-10)
(3.54916e-07 -0.00689551 -2.70821e-10)
(3.54915e-07 -0.00689551 2.24819e-10)
(2.8722e-07 -0.00689752 -2.06051e-10)
(2.87223e-07 -0.00689752 1.85527e-10)
(3.757e-06 -0.0197795 6.57095e-10)
(3.75715e-06 -0.0197795 1.03186e-09)
(3.1288e-06 -0.0197856 5.48786e-10)
(3.12886e-06 -0.0197856 9.44559e-10)
(3.54917e-07 -0.00689551 7.09957e-10)
(3.55317e-07 -0.00689551 1.0911e-09)
(2.87188e-07 -0.00689753 5.9623e-10)
(2.87492e-07 -0.00689753 9.9026e-10)
(3.75837e-06 -0.0197795 1.7906e-09)
(3.76276e-06 -0.0197795 0.934322)
(3.12993e-06 -0.0197856 1.72629e-09)
(3.1337e-06 -0.0197856 0.934515)
(3.58398e-07 -0.00689551 7.47927e-10)
(3.69443e-07 -0.00689551 0.921942)
(2.90118e-07 -0.00689753 8.38968e-10)
(2.99441e-07 -0.00689752 0.92213)
(5.35296e-06 -0.0197637 -0.933532)
(5.34699e-06 -0.0197637 -2.08602e-09)
(4.50834e-06 -0.0197722 -0.93374)
(4.50321e-06 -0.0197722 -1.92366e-09)
(5.48894e-07 -0.00689026 -0.921172)
(5.3343e-07 -0.00689026 -6.5474e-10)
(4.53679e-07 -0.0068931 -0.921375)
(4.40572e-07 -0.00689311 -7.06708e-10)
(5.34545e-06 -0.0197637 -1.27358e-09)
(5.34517e-06 -0.0197637 -9.2909e-10)
(4.50186e-06 -0.0197722 -1.17495e-09)
(4.50166e-06 -0.0197722 -8.22076e-10)
(5.29218e-07 -0.00689026 -1.36591e-09)
(5.28616e-07 -0.00689026 -9.90459e-10)
(4.36954e-07 -0.00689311 -1.2435e-09)
(4.36457e-07 -0.00689311 -8.76756e-10)
(5.34505e-06 -0.0197637 -3.65393e-10)
(5.34505e-06 -0.0197637 3.05419e-10)
(4.5016e-06 -0.0197722 -3.22672e-10)
(4.50161e-06 -0.0197722 2.55309e-10)
(5.28532e-07 -0.00689026 -3.71305e-10)
(5.28533e-07 -0.00689026 3.12322e-10)
(4.36409e-07 -0.0068931 -3.26437e-10)
(4.36407e-07 -0.0068931 2.65395e-10)
(5.34518e-06 -0.0197637 8.65997e-10)
(5.34547e-06 -0.0197637 1.20721e-09)
(4.50169e-06 -0.0197722 7.59133e-10)
(4.50191e-06 -0.0197722 1.11471e-09)
(5.28617e-07 -0.00689026 9.3144e-10)
(5.29219e-07 -0.00689026 1.30411e-09)
(4.36452e-07 -0.00689311 8.19189e-10)
(4.36947e-07 -0.00689311 1.19339e-09)
(5.34701e-06 -0.0197637 2.06136e-09)
(5.35293e-06 -0.0197637 0.933532)
(4.50326e-06 -0.0197722 1.89272e-09)
(4.50833e-06 -0.0197722 0.93374)
(5.33422e-07 -0.00689026 6.15923e-10)
(5.4889e-07 -0.00689026 0.921172)
(4.40548e-07 -0.00689311 6.63824e-10)
(4.53648e-07 -0.00689311 0.921375)
(7.31821e-06 -0.0197423 -0.932719)
(7.31033e-06 -0.0197423 -2.53956e-09)
(6.29052e-06 -0.0197537 -0.932926)
(6.28367e-06 -0.0197537 -2.306e-09)
(7.68636e-07 -0.00688304 -0.920381)
(7.47667e-07 -0.00688305 -6.02184e-10)
(6.5405e-07 -0.00688691 -0.920583)
(6.35973e-07 -0.00688692 -6.34649e-10)
(7.30835e-06 -0.0197423 -1.50079e-09)
(7.30795e-06 -0.0197423 -1.14653e-09)
(6.28192e-06 -0.0197537 -1.37725e-09)
(6.28159e-06 -0.0197537 -1.02947e-09)
(7.42083e-07 -0.00688304 -1.63756e-09)
(7.41252e-07 -0.00688304 -1.22781e-09)
(6.31109e-07 -0.00688692 -1.48668e-09)
(6.30398e-07 -0.00688691 -1.10463e-09)
(7.30773e-06 -0.0197423 -4.48509e-10)
(7.30773e-06 -0.0197423 4.16993e-10)
(6.28141e-06 -0.0197537 -4.068e-10)
(6.28141e-06 -0.0197537 3.58976e-10)
(7.41105e-07 -0.00688304 -4.59299e-10)
(7.41109e-07 -0.00688304 4.17957e-10)
(6.30282e-07 -0.00688691 -4.15567e-10)
(6.30285e-07 -0.00688691 3.63317e-10)
(7.30795e-06 -0.0197423 1.10855e-09)
(7.30836e-06 -0.0197423 1.45422e-09)
(6.28159e-06 -0.0197537 9.83208e-10)
(6.28193e-06 -0.0197537 1.32235e-09)
(7.41261e-07 -0.00688304 1.18495e-09)
(7.42099e-07 -0.00688304 1.58668e-09)
(6.30404e-07 -0.00688691 1.05417e-09)
(6.3112e-07 -0.00688692 1.43718e-09)
(7.31033e-06 -0.0197423 2.53861e-09)
(7.31819e-06 -0.0197423 0.932719)
(6.28368e-06 -0.0197537 2.2718e-09)
(6.29049e-06 -0.0197537 0.932926)
(7.47696e-07 -0.00688305 5.73022e-10)
(7.6869e-07 -0.00688304 0.920381)
(6.35987e-07 -0.00688692 5.75566e-10)
(6.54085e-07 -0.00688692 0.920583)
(9.66511e-06 -0.0197143 -0.931868)
(9.65489e-06 -0.0197143 -3.14407e-09)
(8.4413e-06 -0.0197292 -0.932081)
(8.43234e-06 -0.0197292 -2.83498e-09)
(1.02879e-06 -0.00687353 -0.919551)
(1.00125e-06 -0.00687354 -5.9225e-10)
(8.93311e-07 -0.00687859 -0.919759)
(8.6922e-07 -0.0068786 -6.11501e-10)
(9.65239e-06 -0.0197143 -1.78673e-09)
(9.65186e-06 -0.0197143 -1.40216e-09)
(8.43011e-06 -0.0197292 -1.64362e-09)
(8.42965e-06 -0.0197291 -1.27099e-09)
(9.94015e-07 -0.00687353 -1.96876e-09)
(9.92915e-07 -0.00687353 -1.49817e-09)
(8.62844e-07 -0.00687859 -1.79354e-09)
(8.61883e-07 -0.00687859 -1.36228e-09)
(9.65154e-06 -0.0197143 -5.5153e-10)
(9.65155e-06 -0.0197143 5.27793e-10)
(8.42938e-06 -0.0197291 -5.03864e-10)
(8.42938e-06 -0.0197291 4.67842e-10)
(9.92703e-07 -0.00687353 -5.56308e-10)
(9.92706e-07 -0.00687353 5.36377e-10)
(8.61704e-07 -0.00687859 -5.1072e-10)
(8.61705e-07 -0.00687859 4.73703e-10)
(9.65186e-06 -0.0197143 1.37424e-09)
(9.65239e-06 -0.0197143 1.75306e-09)
(8.42965e-06 -0.0197291 1.23727e-09)
(8.43011e-06 -0.0197292 1.59693e-09)
(9.92919e-07 -0.00687353 1.4773e-09)
(9.94024e-07 -0.00687353 1.93843e-09)
(8.61887e-07 -0.00687859 1.32597e-09)
(8.62853e-07 -0.0068786 1.75306e-09)
(9.65489e-06 -0.0197143 3.1429e-09)
(9.6651e-06 -0.0197143 0.931868)
(8.43233e-06 -0.0197292 2.8149e-09)
(8.44129e-06 -0.0197292 0.932081)
(1.00127e-06 -0.00687354 5.72174e-10)
(1.02886e-06 -0.00687353 0.919551)
(8.69239e-07 -0.0068786 5.53294e-10)
(8.93385e-07 -0.0068786 0.919759)
(1.24605e-05 -0.0196787 -0.930995)
(1.24475e-05 -0.0196787 -3.86152e-09)
(1.10018e-05 -0.0196975 -0.931225)
(1.09903e-05 -0.0196975 -3.49417e-09)
(1.3378e-06 -0.00686136 -0.918701)
(1.30245e-06 -0.00686137 -5.6921e-10)
(1.17653e-06 -0.0068678 -0.918925)
(1.14527e-06 -0.00686781 -5.79183e-10)
(1.24444e-05 -0.0196786 -2.09152e-09)
(1.24437e-05 -0.0196786 -1.65643e-09)
(1.09875e-05 -0.0196975 -1.93052e-09)
(1.09869e-05 -0.0196975 -1.5162e-09)
(1.29326e-06 -0.00686136 -2.32899e-09)
(1.29185e-06 -0.00686136 -1.78023e-09)
(1.1371e-06 -0.0068678 -2.12978e-09)
(1.13585e-06 -0.0068678 -1.62977e-09)
(1.24433e-05 -0.0196786 -6.42562e-10)
(1.24433e-05 -0.0196786 6.56327e-10)
(1.09865e-05 -0.0196975 -5.92199e-10)
(1.09865e-05 -0.0196975 5.96026e-10)
(1.29158e-06 -0.00686135 -6.52823e-10)
(1.29158e-06 -0.00686135 6.63223e-10)
(1.13561e-06 -0.0068678 -5.98811e-10)
(1.13561e-06 -0.0068678 6.04746e-10)
(1.24437e-05 -0.0196786 1.66082e-09)
(1.24444e-05 -0.0196787 2.07721e-09)
(1.09869e-05 -0.0196975 1.52233e-09)
(1.09875e-05 -0.0196975 1.9187e-09)
(1.29186e-06 -0.00686136 1.78838e-09)
(1.29327e-06 -0.00686136 2.32186e-09)
(1.13586e-06 -0.0068678 1.63629e-09)
(1.13712e-06 -0.0068678 2.13191e-09)
(1.24475e-05 -0.0196787 3.84665e-09)
(1.24605e-05 -0.0196787 0.930995)
(1.09903e-05 -0.0196975 3.48173e-09)
(1.10018e-05 -0.0196975 0.931225)
(1.30247e-06 -0.00686137 5.59005e-10)
(1.33788e-06 -0.00686136 0.918701)
(1.14529e-06 -0.00686781 5.67074e-10)
(1.17663e-06 -0.00686781 0.918925)
(1.57983e-05 -0.0196342 -0.930076)
(1.5782e-05 -0.0196342 -4.6616e-09)
(1.40558e-05 -0.0196576 -0.930313)
(1.40412e-05 -0.0196576 -4.23184e-09)
(1.70725e-06 -0.00684611 -0.917806)
(1.66263e-06 -0.00684611 -5.38331e-10)
(1.51423e-06 -0.00685415 -0.918036)
(1.47446e-06 -0.00685415 -5.48085e-10)
(1.57781e-05 -0.0196342 -2.47038e-09)
(1.57773e-05 -0.0196342 -1.99234e-09)
(1.40378e-05 -0.0196576 -2.26809e-09)
(1.40371e-05 -0.0196576 -1.80851e-09)
(1.65112e-06 -0.0068461 -2.78314e-09)
(1.64934e-06 -0.0068461 -2.15092e-09)
(1.46416e-06 -0.00685415 -2.53368e-09)
(1.46258e-06 -0.00685414 -1.95691e-09)
(1.57768e-05 -0.0196342 -8.0048e-10)
(1.57768e-05 -0.0196342 7.45239e-10)
(1.40366e-05 -0.0196576 -7.18304e-10)
(1.40366e-05 -0.0196576 6.994e-10)
(1.64899e-06 -0.0068461 -8.15026e-10)
(1.64899e-06 -0.0068461 7.54475e-10)
(1.46227e-06 -0.00685414 -7.31746e-10)
(1.46227e-06 -0.00685414 7.07364e-10)
(1.57773e-05 -0.0196342 1.9352e-09)
(1.57781e-05 -0.0196342 2.40854e-09)
(1.4037e-05 -0.0196576 1.79451e-09)
(1.40378e-05 -0.0196576 2.23652e-09)
(1.64933e-06 -0.0068461 2.09447e-09)
(1.6511e-06 -0.00684611 2.72128e-09)
(1.46258e-06 -0.00685414 1.93645e-09)
(1.46416e-06 -0.00685415 2.51557e-09)
(1.57819e-05 -0.0196342 4.64864e-09)
(1.57982e-05 -0.0196342 0.930076)
(1.40412e-05 -0.0196576 4.22126e-09)
(1.40558e-05 -0.0196576 0.930313)
(1.6626e-06 -0.00684611 5.0153e-10)
(1.7073e-06 -0.00684611 0.917806)
(1.47445e-06 -0.00685415 5.22327e-10)
(1.51431e-06 -0.00685415 0.918036)
(1.97881e-05 -0.0195794 -0.929135)
(1.97677e-05 -0.0195794 -5.69344e-09)
(1.77053e-05 -0.0196082 -0.929391)
(1.7687e-05 -0.0196082 -5.15192e-09)
(2.15009e-06 -0.00682725 -0.916889)
(2.09439e-06 -0.00682725 -5.37746e-10)
(1.91869e-06 -0.00683716 -0.917138)
(1.86878e-06 -0.00683716 -5.36912e-10)
(1.9763e-05 -0.0195794 -2.90142e-09)
(1.97621e-05 -0.0195794 -2.35882e-09)
(1.76828e-05 -0.0196082 -2.68174e-09)
(1.76819e-05 -0.0196081 -2.16898e-09)
(2.08013e-06 -0.00682724 -3.29919e-09)
(2.07793e-06 -0.00682724 -2.55387e-09)
(1.85594e-06 -0.00683716 -3.02455e-09)
(1.85397e-06 -0.00683715 -2.35012e-09)
(1.97615e-05 -0.0195794 -9.57702e-10)
(1.97615e-05 -0.0195794 8.72879e-10)
(1.76814e-05 -0.0196081 -8.83483e-10)
(1.76814e-05 -0.0196081 8.04667e-10)
(2.07751e-06 -0.00682723 -9.71443e-10)
(2.07751e-06 -0.00682723 8.91289e-10)
(1.85358e-06 -0.00683715 -8.94564e-10)
(1.85358e-06 -0.00683715 8.19601e-10)
(1.97621e-05 -0.0195794 2.27956e-09)
(1.9763e-05 -0.0195794 2.83102e-09)
(1.76819e-05 -0.0196081 2.1031e-09)
(1.76828e-05 -0.0196082 2.61177e-09)
(2.07793e-06 -0.00682724 2.48287e-09)
(2.08012e-06 -0.00682724 3.22988e-09)
(1.85396e-06 -0.00683715 2.28119e-09)
(1.85593e-06 -0.00683716 2.96534e-09)
(1.97677e-05 -0.0195794 5.65696e-09)
(1.9788e-05 -0.0195794 0.929135)
(1.7687e-05 -0.0196082 5.1191e-09)
(1.77052e-05 -0.0196082 0.929391)
(2.09437e-06 -0.00682725 4.95802e-10)
(2.15011e-06 -0.00682725 0.916889)
(1.86874e-06 -0.00683716 4.8378e-10)
(1.91873e-06 -0.00683716 0.917138)
(2.45466e-05 -0.0195126 -0.928159)
(2.45216e-05 -0.0195126 -6.87337e-09)
(2.20644e-05 -0.0195476 -0.928411)
(2.20418e-05 -0.0195476 -6.25333e-09)
(2.67993e-06 -0.00680419 -0.915937)
(2.61112e-06 -0.0068042 -5.41334e-10)
(2.40323e-06 -0.00681628 -0.916183)
(2.34126e-06 -0.00681629 -5.34704e-10)
(2.45159e-05 -0.0195126 -3.37899e-09)
(2.45148e-05 -0.0195126 -2.74245e-09)
(2.20366e-05 -0.0195476 -3.13005e-09)
(2.20356e-05 -0.0195476 -2.53785e-09)
(2.59362e-06 -0.00680419 -3.87883e-09)
(2.59093e-06 -0.00680418 -2.98695e-09)
(2.32545e-06 -0.00681628 -3.56691e-09)
(2.32302e-06 -0.00681627 -2.76439e-09)
(2.45141e-05 -0.0195126 -1.10278e-09)
(2.4514e-05 -0.0195126 1.03817e-09)
(2.2035e-05 -0.0195476 -1.03297e-09)
(2.2035e-05 -0.0195476 9.48974e-10)
(2.59042e-06 -0.00680417 -1.12467e-09)
(2.59042e-06 -0.00680417 1.06095e-09)
(2.32256e-06 -0.00681627 -1.04771e-09)
(2.32255e-06 -0.00681627 9.72281e-10)
(2.45147e-05 -0.0195126 2.67521e-09)
(2.45158e-05 -0.0195126 3.31257e-09)
(2.20356e-05 -0.0195476 2.46852e-09)
(2.20366e-05 -0.0195476 3.06154e-09)
(2.59092e-06 -0.00680418 2.93137e-09)
(2.59361e-06 -0.00680419 3.8184e-09)
(2.32301e-06 -0.00681627 2.69758e-09)
(2.32544e-06 -0.00681628 3.51294e-09)
(2.45215e-05 -0.0195126 6.8474e-09)
(2.45466e-05 -0.0195126 0.928159)
(2.20418e-05 -0.0195476 6.21924e-09)
(2.20643e-05 -0.0195476 0.928411)
(2.6111e-06 -0.0068042 4.90591e-10)
(2.67993e-06 -0.0068042 0.915937)
(2.34124e-06 -0.00681629 4.83889e-10)
(2.40325e-06 -0.00681629 0.916183)
(3.02011e-05 -0.0194319 -0.927146)
(3.01705e-05 -0.0194319 -8.27154e-09)
(2.72548e-05 -0.0194741 -0.927421)
(2.72271e-05 -0.0194741 -7.53487e-09)
(3.31134e-06 -0.00677625 -0.91495)
(3.22704e-06 -0.00677625 -5.16306e-10)
(2.98201e-06 -0.00679088 -0.915219)
(2.90577e-06 -0.00679088 -5.19984e-10)
(3.01635e-05 -0.0194319 -3.94845e-09)
(3.01622e-05 -0.0194319 -3.20301e-09)
(2.72208e-05 -0.0194741 -3.64576e-09)
(2.72196e-05 -0.0194741 -2.95443e-09)
(3.2057e-06 -0.00677624 -4.56642e-09)
(3.20242e-06 -0.00677623 -3.49827e-09)
(2.88643e-06 -0.00679087 -4.19286e-09)
(2.88346e-06 -0.00679086 -3.23261e-09)
(3.01614e-05 -0.0194319 -1.26841e-09)
(3.01614e-05 -0.0194319 1.25815e-09)
(2.72188e-05 -0.0194741 -1.18684e-09)
(2.72188e-05 -0.0194741 1.13979e-09)
(3.20181e-06 -0.00677622 -1.29333e-09)
(3.20181e-06 -0.00677622 1.28646e-09)
(2.8829e-06 -0.00679085 -1.20693e-09)
(2.8829e-06 -0.00679085 1.17011e-09)
(3.01622e-05 -0.0194319 3.18097e-09)
(3.01636e-05 -0.0194319 3.90982e-09)
(2.72196e-05 -0.0194741 2.91489e-09)
(2.72208e-05 -0.0194741 3.60005e-09)
(3.20243e-06 -0.00677623 3.49031e-09)
(3.20572e-06 -0.00677624 4.53285e-09)
(2.88345e-06 -0.00679086 3.20066e-09)
(2.88642e-06 -0.00679087 4.16501e-09)
(3.01705e-05 -0.0194319 8.25657e-09)
(3.02011e-05 -0.0194319 0.927146)
(2.72271e-05 -0.0194741 7.51584e-09)
(2.72547e-05 -0.0194741 0.927421)
(3.22704e-06 -0.00677625 4.81061e-10)
(3.31132e-06 -0.00677625 0.91495)
(2.90575e-06 -0.00679088 4.78335e-10)
(2.98198e-06 -0.00679088 0.915219)
(3.68821e-05 -0.0193352 -0.926093)
(3.68449e-05 -0.0193352 -9.88973e-09)
(3.34058e-05 -0.0193857 -0.926365)
(3.3372e-05 -0.0193857 -9.04037e-09)
(4.05921e-06 -0.00674265 -0.913925)
(3.95678e-06 -0.00674265 -4.74434e-10)
(3.66964e-06 -0.00676021 -0.91419)
(3.57664e-06 -0.0067602 -4.91393e-10)
(3.68366e-05 -0.0193351 -4.60988e-09)
(3.6835e-05 -0.0193351 -3.74807e-09)
(3.33644e-05 -0.0193857 -4.26436e-09)
(3.3363e-05 -0.0193856 -3.45414e-09)
(3.93098e-06 -0.00674264 -5.36567e-09)
(3.92701e-06 -0.00674263 -4.10398e-09)
(3.55316e-06 -0.00676019 -4.93379e-09)
(3.54954e-06 -0.00676018 -3.78964e-09)
(3.6834e-05 -0.0193351 -1.47225e-09)
(3.6834e-05 -0.0193351 1.4987e-09)
(3.33621e-05 -0.0193856 -1.36858e-09)
(3.33621e-05 -0.0193856 1.37643e-09)
(3.92627e-06 -0.00674262 -1.50832e-09)
(3.92628e-06 -0.00674262 1.5245e-09)
(3.54888e-06 -0.00676018 -1.39658e-09)
(3.54888e-06 -0.00676018 1.40456e-09)
(3.6835e-05 -0.0193351 3.75685e-09)
(3.68366e-05 -0.0193351 4.57958e-09)
(3.3363e-05 -0.0193856 3.46433e-09)
(3.33645e-05 -0.0193857 4.2327e-09)
(3.92704e-06 -0.00674263 4.11488e-09)
(3.93103e-06 -0.00674264 5.34006e-09)
(3.54957e-06 -0.00676018 3.79417e-09)
(3.5532e-06 -0.00676019 4.92597e-09)
(3.6845e-05 -0.0193352 9.87272e-09)
(3.6882e-05 -0.0193352 0.926093)
(3.33721e-05 -0.0193857 9.01836e-09)
(3.34057e-05 -0.0193857 0.926365)
(3.95682e-06 -0.00674265 4.41781e-10)
(4.05923e-06 -0.00674265 0.913925)
(3.57666e-06 -0.00676021 4.50629e-10)
(3.66964e-06 -0.00676021 0.91419)
(4.47289e-05 -0.01922 -0.925021)
(4.46843e-05 -0.0192199 -1.17411e-08)
(4.06519e-05 -0.01928 -0.925289)
(4.06113e-05 -0.01928 -1.07774e-08)
(4.9396e-06 -0.00670254 -0.91288)
(4.81603e-06 -0.00670254 -3.78083e-10)
(4.4817e-06 -0.00672346 -0.913141)
(4.36911e-06 -0.00672346 -4.25287e-10)
(4.46743e-05 -0.0192199 -5.32927e-09)
(4.46724e-05 -0.0192199 -4.36532e-09)
(4.06021e-05 -0.01928 -4.96255e-09)
(4.06004e-05 -0.01928 -4.02739e-09)
(4.78506e-06 -0.00670252 -6.2576e-09)
(4.78026e-06 -0.00670251 -4.79765e-09)
(4.34082e-06 -0.00672345 -5.78177e-09)
(4.33645e-06 -0.00672344 -4.44154e-09)
(4.46712e-05 -0.0192199 -1.718e-09)
(4.46712e-05 -0.0192199 1.75226e-09)
(4.05993e-05 -0.0192799 -1.59354e-09)
(4.05993e-05 -0.0192799 1.62145e-09)
(4.77937e-06 -0.0067025 -1.76613e-09)
(4.77938e-06 -0.0067025 1.78562e-09)
(4.33565e-06 -0.00672343 -1.63615e-09)
(4.33566e-06 -0.00672343 1.65052e-09)
(4.46724e-05 -0.0192199 4.39475e-09)
(4.46743e-05 -0.0192199 5.34244e-09)
(4.06004e-05 -0.01928 4.07287e-09)
(4.06022e-05 -0.01928 4.94144e-09)
(4.78027e-06 -0.00670251 4.82706e-09)
(4.78507e-06 -0.00670253 6.27232e-09)
(4.33648e-06 -0.00672344 4.45944e-09)
(4.34085e-06 -0.00672345 5.79288e-09)
(4.46842e-05 -0.0192199 1.17346e-08)
(4.47288e-05 -0.01922 0.925021)
(4.06113e-05 -0.01928 1.0753e-08)
(4.06519e-05 -0.01928 0.925289)
(4.81605e-06 -0.00670254 3.83393e-10)
(4.9396e-06 -0.00670254 0.91288)
(4.36914e-06 -0.00672346 4.07588e-10)
(4.4817e-06 -0.00672346 0.913141)
(5.3881e-05 -0.0190837 -0.923877)
(5.38277e-05 -0.0190836 -1.38258e-08)
(4.91349e-05 -0.0191546 -0.924171)
(4.90862e-05 -0.0191546 -1.2719e-08)
(5.96794e-06 -0.00665498 -0.911765)
(5.81997e-06 -0.00665498 -2.30729e-10)
(5.43414e-06 -0.00667974 -0.912052)
(5.29883e-06 -0.00667974 -2.86545e-10)
(5.38159e-05 -0.0190836 -6.15028e-09)
(5.38136e-05 -0.0190836 -5.05235e-09)
(4.90753e-05 -0.0191545 -5.73274e-09)
(4.90733e-05 -0.0191545 -4.68842e-09)
(5.78299e-06 -0.00665496 -7.26527e-09)
(5.77723e-06 -0.00665494 -5.5753e-09)
(5.26496e-06 -0.00667973 -6.73577e-09)
(5.2597e-06 -0.00667971 -5.18267e-09)
(5.38121e-05 -0.0190836 -1.99386e-09)
(5.38121e-05 -0.0190836 2.04198e-09)
(4.90719e-05 -0.0191545 -1.86333e-09)
(4.90719e-05 -0.0191545 1.88972e-09)
(5.77615e-06 -0.00665493 -2.04562e-09)
(5.77615e-06 -0.00665493 2.09878e-09)
(5.25872e-06 -0.0066797 -1.9064e-09)
(5.25872e-06 -0.0066797 1.94067e-09)
(5.38136e-05 -0.0190836 5.10187e-09)
(5.38159e-05 -0.0190836 6.22986e-09)
(4.90732e-05 -0.0191545 4.7471e-09)
(4.90753e-05 -0.0191545 5.76414e-09)
(5.77722e-06 -0.00665494 5.65035e-09)
(5.78297e-06 -0.00665496 7.33875e-09)
(5.25969e-06 -0.00667971 5.23152e-09)
(5.26495e-06 -0.00667973 6.79525e-09)
(5.38277e-05 -0.0190837 1.38689e-08)
(5.3881e-05 -0.0190837 0.923877)
(4.90862e-05 -0.0191546 1.27466e-08)
(4.91349e-05 -0.0191546 0.924171)
(5.81996e-06 -0.00665498 2.70274e-10)
(5.96795e-06 -0.00665498 0.911765)
(5.29883e-06 -0.00667974 3.30543e-10)
(5.43414e-06 -0.00667974 0.912052)
(6.44757e-05 -0.0189235 -0.922709)
(6.44125e-05 -0.0189235 -1.61911e-08)
(5.89909e-05 -0.0190068 -0.92301)
(5.89329e-05 -0.0190067 -1.49062e-08)
(7.15964e-06 -0.00659897 -0.910627)
(6.9836e-06 -0.00659896 -2.28939e-11)
(6.54214e-06 -0.00662809 -0.910921)
(6.38062e-06 -0.00662809 -8.32333e-11)
(6.43984e-05 -0.0189235 -7.05543e-09)
(6.43956e-05 -0.0189234 -5.79481e-09)
(5.892e-05 -0.0190067 -6.57857e-09)
(5.89174e-05 -0.0190066 -5.40912e-09)
(6.93974e-06 -0.00659895 -8.37873e-09)
(6.93287e-06 -0.00659893 -6.41551e-09)
(6.34032e-06 -0.00662807 -7.79112e-09)
(6.33402e-06 -0.00662805 -5.98885e-09)
(6.43938e-05 -0.0189234 -2.2608e-09)
(6.43939e-05 -0.0189234 2.39988e-09)
(5.89158e-05 -0.0190066 -2.13206e-09)
(5.89158e-05 -0.0190066 2.21637e-09)
(6.93158e-06 -0.00659891 -2.325e-09)
(6.93158e-06 -0.00659891 2.46626e-09)
(6.33284e-06 -0.00662804 -2.18063e-09)
(6.33284e-06 -0.00662804 2.28508e-09)
(6.43956e-05 -0.0189234 5.90231e-09)
(6.43984e-05 -0.0189235 7.18289e-09)
(5.89174e-05 -0.0190066 5.49448e-09)
(5.89199e-05 -0.0190067 6.70521e-09)
(6.93286e-06 -0.00659893 6.56026e-09)
(6.93972e-06 -0.00659895 8.4952e-09)
(6.33401e-06 -0.00662805 6.09928e-09)
(6.34029e-06 -0.00662807 7.91138e-09)
(6.44125e-05 -0.0189235 1.62406e-08)
(6.44757e-05 -0.0189235 0.922709)
(5.89328e-05 -0.0190067 1.5022e-08)
(5.89909e-05 -0.0190068 0.92301)
(6.98359e-06 -0.00659897 8.03602e-11)
(7.15963e-06 -0.00659897 0.910627)
(6.38061e-06 -0.00662809 1.86026e-10)
(6.54214e-06 -0.00662809 0.910921)
(7.66478e-05 -0.0187365 -0.9215)
(7.65732e-05 -0.0187365 -1.87782e-08)
(7.03581e-05 -0.0188336 -0.921812)
(7.02895e-05 -0.0188335 -1.73959e-08)
(8.52954e-06 -0.00653343 -0.909449)
(8.32148e-06 -0.00653343 2.52574e-10)
(7.82106e-06 -0.00656745 -0.909753)
(7.62952e-06 -0.00656745 1.57771e-10)
(7.65567e-05 -0.0187365 -8.04016e-09)
(7.65533e-05 -0.0187364 -6.66364e-09)
(7.02742e-05 -0.0188335 -7.52609e-09)
(7.02711e-05 -0.0188334 -6.19103e-09)
(8.26982e-06 -0.00653341 -9.62933e-09)
(8.26169e-06 -0.00653339 -7.38332e-09)
(7.58187e-06 -0.00656743 -8.96498e-09)
(7.5744e-06 -0.00656741 -6.88333e-09)
(7.65511e-05 -0.0187364 -2.60492e-09)
(7.65512e-05 -0.0187364 2.75048e-09)
(7.02692e-05 -0.0188334 -2.42369e-09)
(7.02692e-05 -0.0188334 2.58073e-09)
(8.26016e-06 -0.00653337 -2.68378e-09)
(8.26017e-06 -0.00653337 2.82158e-09)
(7.573e-06 -0.0065674 -2.49124e-09)
(7.573e-06 -0.0065674 2.65054e-09)
(7.65533e-05 -0.0187364 6.79469e-09)
(7.65567e-05 -0.0187365 8.11497e-09)
(7.02712e-05 -0.0188334 6.34453e-09)
(7.02743e-05 -0.0188335 7.63054e-09)
(8.26169e-06 -0.00653339 7.52472e-09)
(8.26982e-06 -0.00653341 9.72328e-09)
(7.5744e-06 -0.00656741 7.03579e-09)
(7.58187e-06 -0.00656743 9.10229e-09)
(7.65734e-05 -0.0187365 1.87942e-08)
(7.66479e-05 -0.0187366 0.9215)
(7.02896e-05 -0.0188335 1.74637e-08)
(7.03582e-05 -0.0188336 0.921812)
(8.3215e-06 -0.00653343 -2.14687e-10)
(8.52955e-06 -0.00653344 0.909449)
(7.62951e-06 -0.00656745 -5.38571e-11)
(7.82104e-06 -0.00656745 0.909753)
(9.05203e-05 -0.0185196 -0.920247)
(9.04329e-05 -0.0185195 -2.16945e-08)
(8.33662e-05 -0.018632 -0.920572)
(8.32854e-05 -0.0186319 -2.01932e-08)
(1.00909e-05 -0.00645726 -0.908228)
(9.84674e-06 -0.00645726 5.99453e-10)
(9.28511e-06 -0.00649674 -0.908544)
(9.05953e-06 -0.00649674 4.34119e-10)
(9.04134e-05 -0.0185195 -9.14928e-09)
(9.04093e-05 -0.0185194 -7.61155e-09)
(8.32675e-05 -0.0186319 -8.59503e-09)
(8.32637e-05 -0.0186318 -7.09441e-09)
(9.78626e-06 -0.00645723 -1.10237e-08)
(9.77671e-06 -0.00645721 -8.4779e-09)
(9.00357e-06 -0.00649671 -1.02945e-08)
(8.99476e-06 -0.00649669 -7.92384e-09)
(9.04067e-05 -0.0185194 -3.03066e-09)
(9.04067e-05 -0.0185194 3.06484e-09)
(8.32614e-05 -0.0186318 -2.81989e-09)
(8.32614e-05 -0.0186318 2.91015e-09)
(9.77492e-06 -0.00645719 -3.1305e-09)
(9.77492e-06 -0.00645719 3.1552e-09)
(8.99311e-06 -0.00649668 -2.90138e-09)
(8.99311e-06 -0.00649668 2.99523e-09)
(9.04093e-05 -0.0185194 7.67988e-09)
(9.04134e-05 -0.0185195 9.18289e-09)
(8.32638e-05 -0.0186318 7.25242e-09)
(8.32675e-05 -0.0186319 8.61342e-09)
(9.77671e-06 -0.00645721 8.54565e-09)
(9.78627e-06 -0.00645723 1.10828e-08)
(8.99477e-06 -0.00649669 8.03472e-09)
(9.0036e-06 -0.00649671 1.03955e-08)
(9.0433e-05 -0.0185195 2.17398e-08)
(9.05204e-05 -0.0185196 0.920247)
(8.32855e-05 -0.0186319 2.01732e-08)
(8.33663e-05 -0.018632 0.920572)
(9.84679e-06 -0.00645726 -5.51885e-10)
(1.0091e-05 -0.00645726 0.908228)
(9.05955e-06 -0.00649674 -3.9119e-10)
(9.28514e-06 -0.00649674 0.908544)
(0.000106193 -0.0182696 -0.91894)
(0.000106091 -0.0182695 -2.4854e-08)
(9.81279e-05 -0.0183989 -0.919268)
(9.80335e-05 -0.0183988 -2.32623e-08)
(1.18541e-05 -0.00636932 -0.906954)
(1.15696e-05 -0.00636932 1.04804e-09)
(1.09461e-05 -0.00641482 -0.907274)
(1.06823e-05 -0.00641482 7.68889e-10)
(0.000106069 -0.0182695 -1.03612e-08)
(0.000106064 -0.0182694 -8.63329e-09)
(9.80125e-05 -0.0183988 -9.73752e-09)
(9.8008e-05 -0.0183987 -8.10294e-09)
(1.14992e-05 -0.00636929 -1.25534e-08)
(1.1488e-05 -0.00636926 -9.65361e-09)
(1.0617e-05 -0.00641479 -1.17624e-08)
(1.06067e-05 -0.00641477 -9.06743e-09)
(0.000106061 -0.0182694 -3.47062e-09)
(0.000106061 -0.0182694 3.41636e-09)
(9.80052e-05 -0.0183987 -3.26459e-09)
(9.80052e-05 -0.0183987 3.23704e-09)
(1.14859e-05 -0.00636925 -3.58628e-09)
(1.14859e-05 -0.00636925 3.52593e-09)
(1.06048e-05 -0.00641475 -3.35765e-09)
(1.06048e-05 -0.00641475 3.34383e-09)
(0.000106064 -0.0182694 8.56496e-09)
(0.000106069 -0.0182695 1.03408e-08)
(9.8008e-05 -0.0183987 8.11382e-09)
(9.80125e-05 -0.0183988 9.76968e-09)
(1.1488e-05 -0.00636926 9.6138e-09)
(1.14992e-05 -0.00636929 1.24946e-08)
(1.06067e-05 -0.00641477 9.07304e-09)
(1.0617e-05 -0.00641479 1.17767e-08)
(0.000106091 -0.0182695 2.498e-08)
(0.000106193 -0.0182696 0.91894)
(9.80336e-05 -0.0183988 2.33071e-08)
(9.8128e-05 -0.0183989 0.919268)
(1.15696e-05 -0.00636932 -1.05356e-09)
(1.18543e-05 -0.00636932 0.906954)
(1.06824e-05 -0.00641482 -8.3992e-10)
(1.09463e-05 -0.00641482 0.907274)
(0.000123748 -0.0179833 -0.917593)
(0.00012363 -0.0179832 -2.82482e-08)
(0.000114733 -0.0181311 -0.917939)
(0.000114624 -0.0181311 -2.65881e-08)
(1.38271e-05 -0.00626846 -0.905641)
(1.34978e-05 -0.00626846 1.56271e-09)
(1.28135e-05 -0.00632057 -0.905979)
(1.25071e-05 -0.00632056 1.19585e-09)
(0.000123603 -0.0179831 -1.16172e-08)
(0.000123598 -0.0179831 -9.79102e-09)
(0.000114599 -0.018131 -1.0976e-08)
(0.000114594 -0.0181309 -9.17516e-09)
(1.34165e-05 -0.00626843 -1.42238e-08)
(1.34036e-05 -0.0062684 -1.09359e-08)
(1.24314e-05 -0.00632054 -1.3356e-08)
(1.24194e-05 -0.00632051 -1.02919e-08)
(0.000123594 -0.017983 -3.93574e-09)
(0.000123594 -0.017983 3.83098e-09)
(0.000114591 -0.0181309 -3.71755e-09)
(0.000114591 -0.0181309 3.59462e-09)
(1.34011e-05 -0.00626838 -4.07094e-09)
(1.34012e-05 -0.00626838 3.94933e-09)
(1.24171e-05 -0.00632049 -3.83664e-09)
(1.24171e-05 -0.00632049 3.71445e-09)
(0.000123598 -0.0179831 9.63517e-09)
(0.000123604 -0.0179831 1.15028e-08)
(0.000114594 -0.0181309 9.03501e-09)
(0.000114599 -0.018131 1.08462e-08)
(1.34036e-05 -0.0062684 1.08148e-08)
(1.34165e-05 -0.00626843 1.40641e-08)