/*--------------------------------*- C++ -*----------------------------------*\
  =========                 |
  \\      /  F ield         | OpenFOAM: The Open Source CFD Toolbox
   \\    /   O peration     | Website:  https://openfoam.org
    \\  /    A nd           | Version:  9
     \\/     M anipulation  |
\*---------------------------------------------------------------------------*/
FoamFile
{
    format      ascii;
    class       volVectorField;
    location    "1.4";
    object      U;
}
// * * * * * * * * * * * * * * * * * * * * * * * * * * * * * * * * * * * * * //

dimensions      [0 1 -1 0 0 0 0];

internalField   nonuniform List<vector> 
36360
(
(0.000583306 -0.121839 -0.499653)
(-0.000480515 -0.0929574 0.0001104)
(-0.00069724 -0.124012 -0.501533)
(-0.00217068 -0.0855451 4.59082e-05)
(-0.00120202 -0.119017 -0.501199)
(0.0101762 -0.0927886 1.66121e-05)
(-0.000393702 -0.11871 -0.502125)
(0.0120173 -0.101162 1.91616e-05)
(-0.00120194 -0.103663 -6.39769e-05)
(-0.00231119 -0.107725 -3.44463e-06)
(-0.00286733 -0.101746 -3.17821e-05)
(-0.00281674 -0.10565 -1.02056e-06)
(0.00535083 -0.108424 -7.16324e-06)
(0.00433014 -0.107409 -4.90953e-06)
(0.00697565 -0.111617 -2.10166e-05)
(0.00631206 -0.109902 -2.31048e-06)
(-0.00217219 -0.108734 2.64335e-07)
(-0.00217212 -0.108733 -2.63957e-07)
(-0.00263895 -0.106702 2.30708e-08)
(-0.00263892 -0.106702 -2.298e-08)
(0.00443785 -0.106901 -8.55767e-07)
(0.00443788 -0.1069 8.54792e-07)
(0.00625338 -0.109515 -8.70695e-08)
(0.00625336 -0.109515 8.68734e-08)
(-0.00231112 -0.107724 3.44344e-06)
(-0.00120207 -0.103661 6.39665e-05)
(-0.00281664 -0.105649 1.02014e-06)
(-0.00286732 -0.101744 3.17774e-05)
(0.00433021 -0.107407 4.90721e-06)
(0.00535077 -0.108421 7.1565e-06)
(0.00631202 -0.109901 2.30953e-06)
(0.00697553 -0.111614 2.10164e-05)
(-0.000480767 -0.0929544 -0.000110415)
(0.000582612 -0.121843 0.499652)
(-0.00217044 -0.085542 -4.59152e-05)
(-0.00069762 -0.124017 0.501533)
(0.0101769 -0.0927849 -1.65959e-05)
(-0.00120207 -0.119025 0.501199)
(0.012018 -0.10116 -1.91564e-05)
(-0.000393546 -0.118718 0.502125)
(0.00273789 -0.118469 -0.498158)
(-0.00226331 -0.0997404 0.000145394)
(0.00191199 -0.120161 -0.498977)
(-0.000851589 -0.0969318 0.000138637)
(-0.000489047 -0.11914 -0.500889)
(0.00289472 -0.0844929 -1.32073e-05)
(-0.00092515 -0.119955 -0.500907)
(0.00689633 -0.0858081 3.84028e-06)
(0.00118112 -0.105261 -6.36843e-05)
(-0.000216741 -0.109136 -1.03574e-05)
(0.00080669 -0.104667 -6.8129e-05)
(-0.000982274 -0.10892 -6.75207e-06)
(0.00376425 -0.101999 4.0696e-05)
(0.00176677 -0.104964 -1.07176e-05)
(0.00484764 -0.104716 1.37212e-05)
(0.0030335 -0.105629 -8.03937e-06)
(-0.000674171 -0.110705 -1.36895e-06)
(-0.000674245 -0.110705 1.36994e-06)
(-0.00118685 -0.110236 -2.519e-07)
(-0.00118683 -0.110236 2.52872e-07)
(0.00177732 -0.104421 -3.17458e-06)
(0.00177746 -0.10442 3.17201e-06)
(0.00320406 -0.104969 -1.99804e-06)
(0.00320417 -0.104968 1.99653e-06)
(-0.00021703 -0.109136 1.03554e-05)
(0.00118103 -0.105259 6.36704e-05)
(-0.000982452 -0.108919 6.75052e-06)
(0.000806551 -0.104665 6.81158e-05)
(0.00176665 -0.104962 1.07123e-05)
(0.00376433 -0.101997 -4.07204e-05)
(0.00303364 -0.105628 8.03612e-06)
(0.00484764 -0.104714 -1.37351e-05)
(-0.00226436 -0.0997387 -0.00014541)
(0.00273808 -0.118474 0.498157)
(-0.000852284 -0.0969297 -0.000138654)
(0.0019117 -0.120165 0.498976)
(0.00289506 -0.0844894 1.32569e-05)
(-0.000488526 -0.119149 0.500888)
(0.00689694 -0.0858045 -3.80883e-06)
(-0.000924931 -0.119964 0.500907)
(0.00345061 -0.115708 -0.497202)
(-0.00439013 -0.102425 0.000126001)
(0.00320115 -0.11696 -0.497572)
(-0.00354443 -0.101352 0.00013977)
(0.000532964 -0.116718 -0.501155)
(-0.000731551 -0.0860884 -6.36807e-05)
(0.000140054 -0.117902 -0.501232)
(0.000489986 -0.0847498 -3.66998e-05)
(0.000645258 -0.105489 -3.01584e-05)
(8.71573e-05 -0.109012 -1.3989e-05)
(0.000948812 -0.105486 -4.98664e-05)
(3.48072e-05 -0.109148 -1.30449e-05)
(0.00175198 -0.0986824 0.000105381)
(0.000388919 -0.103946 -1.18297e-05)
(0.00253909 -0.0999211 7.27158e-05)
(0.000846855 -0.104344 -1.19673e-05)
(-0.000234518 -0.110976 -4.01108e-06)
(-0.000234586 -0.110976 3.99688e-06)
(-0.000387819 -0.11094 -2.72715e-06)
(-0.000387966 -0.11094 2.73529e-06)
(0.000105776 -0.104106 -4.86006e-06)
(0.000105834 -0.104105 4.84574e-06)
(0.000654038 -0.104147 -4.05889e-06)
(0.000654154 -0.104147 4.05404e-06)
(8.70735e-05 -0.109011 1.39661e-05)
(0.000645229 -0.105487 3.01213e-05)
(3.45433e-05 -0.109147 1.302e-05)
(0.000948822 -0.105484 4.98438e-05)
(0.000388712 -0.103945 1.18101e-05)
(0.00175233 -0.0986799 -0.00010544)
(0.000846554 -0.104343 1.19552e-05)
(0.00253935 -0.0999188 -7.27558e-05)
(-0.00439154 -0.102424 -0.000126012)
(0.00345159 -0.115712 0.4972)
(-0.00354566 -0.101351 -0.000139765)
(0.00320182 -0.116964 0.497571)
(-0.000731739 -0.0860854 6.37657e-05)
(0.000534259 -0.116725 0.501155)
(0.00049003 -0.0847466 3.67699e-05)
(0.000141079 -0.11791 0.501232)
(0.00380516 -0.113729 -0.496771)
(-0.00504902 -0.104009 8.65383e-05)
(0.00364724 -0.114643 -0.496926)
(-0.00485451 -0.103281 0.000107398)
(0.000996464 -0.114043 -0.501071)
(-0.00149048 -0.0898158 -0.000117747)
(0.000811491 -0.115406 -0.501101)
(-0.00129405 -0.0879156 -9.11646e-05)
(0.000308328 -0.105426 1.2978e-05)
(0.000141213 -0.108633 -1.06784e-05)
(0.000429426 -0.105446 -8.39319e-06)
(0.000107134 -0.108819 -1.309e-05)
(0.00112508 -0.0977189 0.000163015)
(0.000183907 -0.10359 -7.67809e-06)
(0.00132905 -0.0980373 0.000135901)
(0.000220479 -0.103735 -1.03286e-05)
(-7.06656e-05 -0.110798 -5.65579e-06)
(-7.06369e-05 -0.110798 5.6319e-06)
(-0.000140962 -0.110902 -5.00741e-06)
(-0.000140895 -0.110902 4.97649e-06)
(-6.99337e-05 -0.104289 -5.94426e-06)
(-6.98953e-05 -0.104288 5.92446e-06)
(-5.92118e-05 -0.104197 -5.50424e-06)
(-5.91723e-05 -0.104196 5.4803e-06)
(0.000141237 -0.108632 1.0643e-05)
(0.000308235 -0.105424 -1.30295e-05)
(0.00010709 -0.108818 1.30116e-05)
(0.000429298 -0.105444 8.33903e-06)
(0.000183924 -0.10359 7.64812e-06)
(0.00112541 -0.0977162 -0.000163101)
(0.000220399 -0.103734 1.02948e-05)
(0.00132941 -0.0980347 -0.000135979)
(-0.00505077 -0.104009 -8.65363e-05)
(0.00380646 -0.113732 0.496769)
(-0.00485612 -0.10328 -0.000107387)
(0.00364842 -0.114646 0.496923)
(-0.00149101 -0.0898137 0.000117872)
(0.000997945 -0.11405 0.50107)
(-0.00129443 -0.0879131 9.1269e-05)
(0.000812912 -0.115413 0.5011)
(0.00400701 -0.112216 -0.496575)
(-0.00504182 -0.105112 4.42165e-05)
(0.00392976 -0.112928 -0.496637)
(-0.00508861 -0.10462 6.50373e-05)
(0.00116427 -0.111347 -0.501033)
(-0.00141009 -0.0931305 -0.000165655)
(0.00111584 -0.112677 -0.501045)
(-0.00149132 -0.0915819 -0.000142711)
(0.000216067 -0.105511 4.96228e-05)
(0.000227823 -0.108322 -2.93287e-06)
(0.000245506 -0.10545 3.24487e-05)
(0.000185516 -0.108469 -7.09089e-06)
(0.000925658 -0.0975568 0.000205654)
(0.000229684 -0.103233 -9.73796e-08)
(0.000999286 -0.0975855 0.000186233)
(0.000199434 -0.103429 -4.15899e-06)
(4.3643e-05 -0.110573 -6.03206e-06)
(4.36666e-05 -0.110573 6.01956e-06)
(-1.12852e-05 -0.110687 -5.98771e-06)
(-1.12521e-05 -0.110688 5.97248e-06)
(-3.36336e-06 -0.104308 -6.13312e-06)
(-3.34107e-06 -0.104307 6.11996e-06)
(-3.84988e-05 -0.104324 -6.15238e-06)
(-3.84724e-05 -0.104323 6.13719e-06)
(0.000227848 -0.108321 2.90475e-06)
(0.000215881 -0.10551 -4.96795e-05)
(0.000185547 -0.108468 7.06227e-06)
(0.000245361 -0.105448 -3.25022e-05)
(0.000229769 -0.103232 6.8453e-08)
(0.000925835 -0.0975544 -0.000205753)
(0.0001995 -0.103428 4.13056e-06)
(0.000999528 -0.0975829 -0.000186326)
(-0.0050438 -0.105112 -4.41908e-05)
(0.0040084 -0.112219 0.496572)
(-0.0050905 -0.10462 -6.50248e-05)
(0.00393111 -0.112931 0.496634)
(-0.00141075 -0.0931292 0.000165822)
(0.00116579 -0.111352 0.501032)
(-0.00149193 -0.0915802 0.000142858)
(0.00111735 -0.112682 0.501045)
(0.00406239 -0.110983 -0.496464)
(-0.00486177 -0.105801 6.85354e-06)
(0.0040518 -0.111572 -0.496494)
(-0.00496118 -0.105503 2.47271e-05)
(0.00115183 -0.10891 -0.50101)
(-0.00120862 -0.0955279 -0.000205035)
(0.00117645 -0.110084 -0.501017)
(-0.0013157 -0.094443 -0.000186415)
(0.0001928 -0.105657 7.63769e-05)
(0.000277181 -0.108057 6.03645e-06)
(0.000199401 -0.105585 6.42269e-05)
(0.00025771 -0.108187 1.50812e-06)
(0.000846057 -0.0976749 0.000234556)
(0.000267564 -0.102775 8.65437e-06)
(0.000877883 -0.0975955 0.000221606)
(0.000253471 -0.103011 4.23798e-06)
(0.000133256 -0.110318 -5.43018e-06)
(0.000133247 -0.110318 5.41743e-06)
(9.32789e-05 -0.110449 -5.82861e-06)
(9.32896e-05 -0.11045 5.81637e-06)
(6.3604e-05 -0.104122 -5.51912e-06)
(6.36209e-05 -0.104121 5.50577e-06)
(3.59095e-05 -0.104236 -5.91486e-06)
(3.59353e-05 -0.104235 5.90199e-06)
(0.000277184 -0.108056 -6.06834e-06)
(0.000192563 -0.105655 -7.64409e-05)
(0.000257723 -0.108186 -1.53769e-06)
(0.000199184 -0.105584 -6.42872e-05)
(0.000267659 -0.102774 -8.68711e-06)
(0.000846148 -0.0976728 -0.000234665)
(0.000253564 -0.10301 -4.26863e-06)
(0.000878015 -0.0975931 -0.000221711)
(-0.00486382 -0.105801 -6.80113e-06)
(0.0040638 -0.110985 0.496461)
(-0.00496321 -0.105503 -2.46878e-05)
(0.00405321 -0.111574 0.496491)
(-0.00120932 -0.0955274 0.000205235)
(0.00115337 -0.108914 0.50101)
(-0.00131639 -0.0944422 0.0001866)
(0.001178 -0.110089 0.501016)
(0.00404312 -0.109932 -0.496376)
(-0.00466557 -0.106156 -2.36891e-05)
(0.00406023 -0.110439 -0.496397)
(-0.00476465 -0.106015 -9.2683e-06)
(0.00107203 -0.106854 -0.500991)
(-0.00101993 -0.0971136 -0.00023634)
(0.00111894 -0.107833 -0.500997)
(-0.00111408 -0.09641 -0.000221619)
(0.000197245 -0.105762 9.41655e-05)
(0.000298296 -0.107794 1.4779e-05)
(0.000191256 -0.105718 8.62439e-05)
(0.000289053 -0.107927 1.04986e-05)
(0.000806304 -0.0978894 0.000253158)
(0.000277585 -0.102299 1.7218e-05)
(0.000821212 -0.0977776 0.000244928)
(0.000274428 -0.102535 1.30171e-05)
(0.000194307 -0.110013 -4.1714e-06)
(0.000194276 -0.110013 4.15604e-06)
(0.00016561 -0.110173 -4.86105e-06)
(0.000165587 -0.110173 4.84703e-06)
(9.55327e-05 -0.103821 -4.30091e-06)
(9.55392e-05 -0.10382 4.28498e-06)
(8.15113e-05 -0.103983 -4.9661e-06)
(8.15224e-05 -0.103982 4.95156e-06)
(0.000298277 -0.107793 -1.48161e-05)
(0.000196992 -0.105761 -9.42347e-05)
(0.000289043 -0.107926 -1.05331e-05)
(0.000191009 -0.105716 -8.63109e-05)
(0.000277672 -0.102298 -1.7256e-05)
(0.000806359 -0.0978877 -0.000253273)
(0.000274517 -0.102534 -1.30525e-05)
(0.000821275 -0.0977757 -0.000245041)
(-0.00466762 -0.106156 2.3765e-05)
(0.00404453 -0.109933 0.496373)
(-0.00476671 -0.106015 9.33289e-06)
(0.00406165 -0.11044 0.496394)
(-0.00102059 -0.0971138 0.000236567)
(0.00107355 -0.106857 0.50099)
(-0.00111477 -0.0964099 0.000221833)
(0.00112049 -0.107837 0.500996)
(0.00401132 -0.109002 -0.496293)
(-0.004487 -0.106253 -4.78454e-05)
(0.00402909 -0.109455 -0.496314)
(-0.00457557 -0.106232 -3.64904e-05)
(0.000988201 -0.105151 -0.500973)
(-0.000868933 -0.0980852 -0.000260928)
(0.00103233 -0.105962 -0.500978)
(-0.000943302 -0.0976654 -0.000249381)
(0.000223278 -0.105785 0.00010525)
(0.000315599 -0.107508 2.25516e-05)
(0.000207103 -0.105786 0.000100404)
(0.000306633 -0.107655 1.88083e-05)
(0.000796831 -0.0980976 0.000264613)
(0.000279044 -0.10184 2.49067e-05)
(0.000797143 -0.0979993 0.000259611)
(0.000278412 -0.102067 2.11939e-05)
(0.000247651 -0.109649 -2.56753e-06)
(0.00024762 -0.109649 2.54894e-06)
(0.000221047 -0.109837 -3.39731e-06)
(0.000221016 -0.109838 3.3803e-06)
(0.000118949 -0.103443 -2.75359e-06)
(0.000118953 -0.103442 2.73451e-06)
(0.000107693 -0.10364 -3.55426e-06)
(0.000107698 -0.10364 3.53671e-06)
(0.000315561 -0.107507 -2.25935e-05)
(0.000223048 -0.105784 -0.000105321)
(0.000306604 -0.107654 -1.8848e-05)
(0.00020685 -0.105785 -0.000100475)
(0.000279124 -0.101839 -2.49496e-05)
(0.000796913 -0.0980962 -0.00026473)
(0.000278497 -0.102066 -2.12344e-05)
(0.000797204 -0.0979977 -0.000259727)
(-0.00448903 -0.106253 4.794e-05)
(0.00401271 -0.109003 0.49629)
(-0.00457761 -0.106233 3.65763e-05)
(0.00403049 -0.109456 0.49631)
(-0.000869546 -0.0980857 0.000261174)
(0.000989704 -0.105153 0.500972)
(-0.000943938 -0.0976658 0.000249618)
(0.00103385 -0.105965 0.500977)
(0.00399295 -0.108146 -0.496208)
(-0.00432966 -0.106153 -6.68315e-05)
(0.00400246 -0.108567 -0.496228)
(-0.00440813 -0.106225 -5.79006e-05)
(0.000920484 -0.103718 -0.500954)
(-0.000755178 -0.0986032 -0.000280189)
(0.000955967 -0.104406 -0.50096)
(-0.000811415 -0.0983935 -0.00027115)
(0.000272035 -0.105707 0.000111882)
(0.000338657 -0.107184 2.91275e-05)
(0.000243861 -0.10576 0.000108991)
(0.000325765 -0.107352 2.59919e-05)
(0.00081284 -0.0982351 0.000271268)
(0.000280592 -0.101389 3.14764e-05)
(0.000801165 -0.098178 0.000268416)
(0.000279256 -0.101614 2.83432e-05)
(0.000301704 -0.109228 -8.33656e-07)
(0.000301672 -0.109228 8.11929e-07)
(0.000274359 -0.109445 -1.70597e-06)
(0.000274328 -0.109446 1.68573e-06)
(0.000140611 -0.103003 -1.07973e-06)
(0.000140613 -0.103002 1.05762e-06)
(0.000129789 -0.103231 -1.92177e-06)
(0.000129792 -0.10323 1.90109e-06)
(0.000338599 -0.107183 -2.91731e-05)
(0.000271839 -0.105706 -0.000111953)
(0.000325713 -0.107351 -2.60358e-05)
(0.000243654 -0.10576 -0.000109063)
(0.000280667 -0.101389 -3.1523e-05)
(0.000812989 -0.0982342 -0.000271384)
(0.000279332 -0.101613 -2.83881e-05)
(0.000801285 -0.0981768 -0.000268533)
(-0.00433168 -0.106153 6.69405e-05)
(0.0039943 -0.108147 0.496205)
(-0.00441016 -0.106226 5.80029e-05)
(0.00400384 -0.108568 0.496225)
(-0.00075578 -0.098604 0.00028045)
(0.000921953 -0.10372 0.500954)
(-0.000812033 -0.0983942 0.000271404)
(0.000957454 -0.104408 0.500959)
(0.00399598 -0.107327 -0.496123)
(-0.00418844 -0.105891 -8.17624e-05)
(0.00399471 -0.107734 -0.496144)
(-0.00425982 -0.10604 -7.4736e-05)
(0.000872543 -0.10247 -0.500937)
(-0.000670043 -0.0987798 -0.000295253)
(0.000898667 -0.103076 -0.500941)
(-0.000714148 -0.0987296 -0.000288182)
(0.000335385 -0.105518 0.000115542)
(0.000372937 -0.106807 3.44866e-05)
(0.000301731 -0.105627 0.000113997)
(0.00035404 -0.107003 3.19536e-05)
(0.000844006 -0.0982666 0.000274675)
(0.000286065 -0.10093 3.68458e-05)
(0.000827087 -0.0982653 0.000273349)
(0.00028259 -0.101162 3.43088e-05)
(0.00035947 -0.108746 8.79395e-07)
(0.00035944 -0.108747 -9.03709e-07)
(0.000329921 -0.108995 3.22071e-08)
(0.000329891 -0.108995 -5.54106e-08)
(0.000163 -0.102501 5.74937e-07)
(0.000162999 -0.102501 -5.99325e-07)
(0.000151614 -0.10276 -2.43176e-07)
(0.000151615 -0.10276 2.19677e-07)
(0.000372868 -0.106807 -3.45345e-05)
(0.000335195 -0.105518 -0.000115611)
(0.000353977 -0.107002 -3.20005e-05)
(0.00030154 -0.105626 -0.000114067)
(0.000286137 -0.10093 -3.68946e-05)
(0.000844208 -0.0982659 -0.000274789)
(0.000282664 -0.101161 -3.43568e-05)
(0.000827258 -0.0982645 -0.000273465)
(-0.00419046 -0.105892 8.18826e-05)
(0.0039973 -0.107328 0.49612)
(-0.00426183 -0.106041 7.48509e-05)
(0.00399605 -0.107735 0.496141)
(-0.000670617 -0.0987807 0.000295525)
(0.000873986 -0.102472 0.500936)
(-0.000714738 -0.0987304 0.000288449)
(0.000900127 -0.103078 0.500941)
(0.00402018 -0.106512 -0.496037)
(-0.00405664 -0.105493 -9.35508e-05)
(0.00400793 -0.106921 -0.496056)
(-0.00412479 -0.105709 -8.79907e-05)
(0.000839722 -0.101339 -0.500919)
(-0.000610567 -0.0987037 -0.000306994)
(0.000858021 -0.101894 -0.500923)
(-0.000642041 -0.0987665 -0.000301435)
(0.000409413 -0.105213 0.000117298)
(0.000420558 -0.106363 3.87424e-05)
(0.000370205 -0.10538 0.000116598)
(0.000394836 -0.106594 3.67393e-05)
(0.000884687 -0.0981738 0.000276326)
(0.000296909 -0.100441 4.11276e-05)
(0.000861921 -0.0982376 0.000275623)
(0.000290608 -0.100691 3.91133e-05)
(0.000423672 -0.108197 2.48076e-06)
(0.000423646 -0.108198 -2.50427e-06)
(0.000390594 -0.10848 1.69776e-06)
(0.000390566 -0.108481 -1.72261e-06)
(0.000187657 -0.101935 2.11979e-06)
(0.000187653 -0.101934 -2.13978e-06)
(0.000174988 -0.102227 1.36462e-06)
(0.000174986 -0.102226 -1.38896e-06)
(0.000420474 -0.106363 -3.87899e-05)
(0.000409224 -0.105213 -0.000117362)
(0.00039476 -0.106594 -3.67876e-05)
(0.000370013 -0.10538 -0.000116665)
(0.000296971 -0.10044 -4.1178e-05)
(0.000884916 -0.0981733 -0.000276438)
(0.000290676 -0.10069 -3.91624e-05)
(0.000862125 -0.098237 -0.000275734)
(-0.00405865 -0.105493 9.36818e-05)
(0.00402145 -0.106512 0.496033)
(-0.00412681 -0.105709 8.81162e-05)
(0.00400923 -0.106921 0.496053)
(-0.000611115 -0.0987045 0.000307278)
(0.000841143 -0.10134 0.500918)
(-0.000642603 -0.0987673 0.000301712)
(0.000859456 -0.101895 0.500922)
(0.00406594 -0.105673 -0.495949)
(-0.00392448 -0.104971 -0.000102929)
(0.00404357 -0.106097 -0.495969)
(-0.00399269 -0.105247 -9.84922e-05)
(0.000822195 -0.100266 -0.500901)
(-0.000558416 -0.0984131 -0.000316517)
(0.000833757 -0.100798 -0.500905)
(-0.000586119 -0.0985797 -0.000311998)
(0.000493083 -0.10479 0.00011789)
(0.000481261 -0.105839 4.20678e-05)
(0.000449485 -0.105017 0.000117699)
(0.000449243 -0.106112 4.05056e-05)
(0.000930389 -0.0979454 0.000276743)
(0.000312777 -0.0998992 4.46228e-05)
(0.000906199 -0.0980765 0.000276569)
(0.000304162 -0.100178 4.28909e-05)
(0.000495739 -0.107572 3.90689e-06)
(0.000495718 -0.107572 -3.94743e-06)
(0.000458672 -0.107894 3.22305e-06)
(0.000458647 -0.107895 -3.24145e-06)
(0.000214617 -0.101297 3.33716e-06)
(0.000214638 -0.101296 -3.68019e-06)
(0.000200891 -0.101626 2.84623e-06)
(0.000200889 -0.101625 -2.83315e-06)
(0.000481303 -0.105838 -4.20725e-05)
(0.000492803 -0.10479 -0.000117917)
(0.000449146 -0.106111 -4.05484e-05)
(0.00044931 -0.105016 -0.000117758)
(0.000312926 -0.099899 -4.43288e-05)
(0.000930563 -0.097945 -0.000276485)
(0.000304207 -0.100177 -4.29654e-05)
(0.000906461 -0.0980763 -0.000276703)
(-0.00392654 -0.104971 0.000103051)
(0.00406718 -0.105673 0.495945)
(-0.00399471 -0.105247 9.86293e-05)
(0.00404484 -0.106097 0.495966)
(-0.000558971 -0.0984139 0.000316567)
(0.000823591 -0.100267 0.5009)
(-0.00058666 -0.0985806 0.000312318)
(0.000835172 -0.100799 0.500905)
(0.00412943 -0.104789 -0.495858)
(-0.0037915 -0.104331 -0.000110431)
(0.00409823 -0.105238 -0.495878)
(-0.00386065 -0.104666 -0.000106855)
(0.000814984 -0.099211 -0.500883)
(-0.000518785 -0.0979536 -0.000324034)
(0.000821166 -0.0997387 -0.500887)
(-0.000541718 -0.0982035 -0.000320092)
(0.000584906 -0.104247 0.000117729)
(0.000554924 -0.105221 4.4583e-05)
(0.000537073 -0.104534 0.000117819)
(0.000516457 -0.105542 4.3359e-05)
(0.00097862 -0.0975796 0.000276336)
(0.00033391 -0.0992855 4.73363e-05)
(0.000953117 -0.0977797 0.000276038)
(0.000322643 -0.0996026 4.55224e-05)
(0.000576527 -0.10686 5.13367e-06)
(0.000576551 -0.106861 -5.22084e-06)
(0.000534995 -0.107227 4.58202e-06)
(0.000534959 -0.107228 -4.56905e-06)
(0.000244146 -0.100579 4.33526e-06)
(0.000244189 -0.100578 -5.07816e-06)
(0.000229072 -0.100949 4.38425e-06)
(0.000229047 -0.100948 -3.87407e-06)
(0.000555056 -0.105221 -4.45648e-05)
(0.000584489 -0.104246 -0.000117706)
(0.000516169 -0.105542 -4.34642e-05)
(0.000537058 -0.104534 -0.000117937)
(0.000334167 -0.0992853 -4.66411e-05)
(0.0009787 -0.0975795 -0.000275645)
(0.000322532 -0.0996021 -4.61335e-05)
(0.000953564 -0.0977797 -0.00027674)
(-0.0037936 -0.104331 0.000110546)
(0.00413062 -0.10479 0.495855)
(-0.00386262 -0.104666 0.000107018)
(0.00409949 -0.105238 0.495874)
(-0.000519357 -0.0979544 0.000323786)
(0.000816357 -0.0992118 0.500882)
(-0.000542195 -0.0982044 0.00032079)
(0.000822586 -0.0997396 0.500887)
(0.00420981 -0.103841 -0.495768)
(-0.00365597 -0.103575 -0.000116491)
(0.00417013 -0.104324 -0.495786)
(-0.00372689 -0.103968 -0.000113578)
(0.000817907 -0.0981388 -0.500866)
(-0.000485035 -0.0973439 -0.000329975)
(0.000819042 -0.0986787 -0.50087)
(-0.000505334 -0.0976665 -0.00032653)
(0.000685313 -0.103577 0.000117074)
(0.000642261 -0.104499 4.64471e-05)
(0.000632938 -0.103928 0.000117346)
(0.000597013 -0.104874 4.55052e-05)
(0.00102881 -0.0970736 0.000275308)
(0.000361016 -0.0985835 4.93092e-05)
(0.00100237 -0.0973442 0.000274941)
(0.000346864 -0.0989466 4.75196e-05)
(0.000667084 -0.106053 6.1876e-06)
(0.000667123 -0.106053 -6.29505e-06)
(0.00062059 -0.106469 5.75113e-06)
(0.000620518 -0.106469 -5.71244e-06)
(0.000276829 -0.0997706 5.22277e-06)
(0.000276885 -0.0997702 -6.2171e-06)
(0.00026014 -0.100187 5.64489e-06)
(0.000260096 -0.100186 -4.82442e-06)
(0.000642474 -0.104499 -4.64061e-05)
(0.000684817 -0.103577 -0.00011702)
(0.000596651 -0.104874 -4.56357e-05)
(0.000633036 -0.103928 -0.000117501)
(0.000361346 -0.0985833 -4.8355e-05)
(0.00102883 -0.0970736 -0.00027434)
(0.000346662 -0.0989462 -4.84579e-05)
(0.00100294 -0.0973444 -0.000275988)
(-0.00365809 -0.103575 0.000116599)
(0.00421097 -0.103841 0.495764)
(-0.00372883 -0.103968 0.000113754)
(0.00417138 -0.104324 0.495782)
(-0.000485599 -0.0973447 0.000329536)
(0.000819269 -0.0981394 0.500865)
(-0.000505765 -0.0976673 0.000327472)
(0.000820463 -0.0986794 0.500869)
(0.00430678 -0.10281 -0.495672)
(-0.0035111 -0.102701 -0.000121445)
(0.00425888 -0.103337 -0.495692)
(-0.00358742 -0.103153 -0.000119043)
(0.000829005 -0.097022 -0.500849)
(-0.000453323 -0.096596 -0.000334675)
(0.000826184 -0.0975872 -0.500852)
(-0.000473075 -0.0969869 -0.000331663)
(0.000795725 -0.102778 0.000116065)
(0.000743148 -0.103662 4.78428e-05)
(0.000738223 -0.103194 0.000116487)
(0.000691281 -0.104095 4.70907e-05)
(0.00107964 -0.0964242 0.000273873)
(0.000393879 -0.0977788 5.06833e-05)
(0.00105297 -0.0967668 0.000273475)
(0.00037698 -0.0981948 4.89769e-05)
(0.000768454 -0.105138 7.0853e-06)
(0.000768501 -0.105139 -7.17204e-06)
(0.000716448 -0.105609 6.73713e-06)
(0.000716362 -0.10561 -6.67602e-06)
(0.000313275 -0.0988628 5.98292e-06)
(0.000313332 -0.0988624 -7.12557e-06)
(0.000294631 -0.09933 6.6657e-06)
(0.00029458 -0.0993296 -5.6491e-06)
(0.000743417 -0.103662 -4.77042e-05)
(0.000795184 -0.102778 -0.000116089)
(0.000690865 -0.104095 -4.72333e-05)
(0.000738388 -0.103194 -0.000116662)
(0.000394285 -0.0977786 -4.95719e-05)
(0.00107963 -0.0964244 -0.000272744)
(0.00037672 -0.0981945 -5.01145e-05)
(0.00105361 -0.096767 -0.000274731)
(-0.00351326 -0.102701 0.000121525)
(0.00430792 -0.10281 0.495669)
(-0.00358935 -0.103153 0.000119231)
(0.00426012 -0.103336 0.495689)
(-0.000453864 -0.0965967 0.000334116)
(0.000830359 -0.0970225 0.500848)
(-0.00047345 -0.0969877 0.00033276)
(0.000827606 -0.0975878 0.500852)
(0.00441888 -0.101683 -0.495577)
(-0.00335416 -0.101703 -0.000125473)
(0.00436361 -0.10226 -0.495596)
(-0.00343661 -0.102218 -0.000123471)
(0.000847831 -0.0958381 -0.500832)
(-0.00041847 -0.0957116 -0.000338394)
(0.000841066 -0.0964395 -0.500834)
(-0.000440677 -0.0961711 -0.000335734)
(0.000915825 -0.101845 0.000114901)
(0.000857102 -0.1027 4.8814e-05)
(0.000853578 -0.102329 0.000115536)
(0.000798769 -0.103197 4.81208e-05)
(0.00113189 -0.095629 0.000272129)
(0.000432753 -0.096859 5.16401e-05)
(0.0011043 -0.0960449 0.000271797)
(0.000412865 -0.0973339 4.99514e-05)
(0.000881465 -0.104106 7.84282e-06)
(0.000881559 -0.104106 -7.86871e-06)
(0.000823594 -0.104637 7.50894e-06)
(0.000823488 -0.104638 -7.52074e-06)
(0.000353746 -0.0978443 6.61603e-06)
(0.000353812 -0.097844 -7.82514e-06)
(0.000333089 -0.0983684 7.46447e-06)
(0.000333079 -0.098368 -6.35235e-06)
(0.000857372 -0.102699 -4.85406e-05)
(0.000915248 -0.101845 -0.00011507)
(0.000798345 -0.103197 -4.843e-05)
(0.000853791 -0.102329 -0.000115536)
(0.000433205 -0.0968589 -5.02923e-05)
(0.00113186 -0.0956292 -0.000271013)
(0.000412514 -0.0973338 -5.12545e-05)
(0.00110497 -0.0960452 -0.00027313)
(-0.00335633 -0.101703 0.000125523)
(0.00442001 -0.101683 0.495573)
(-0.00343853 -0.102218 0.000123701)
(0.00436483 -0.102259 0.495592)
(-0.000419033 -0.0957123 0.000337724)
(0.000849177 -0.0958385 0.50083)
(-0.000441039 -0.0961718 0.00033694)
(0.000842484 -0.09644 0.500834)
(0.00454493 -0.100444 -0.495479)
(-0.00318279 -0.100571 -0.000128758)
(0.00448261 -0.101078 -0.495498)
(-0.00327305 -0.101155 -0.000127081)
(0.00087402 -0.0945679 -0.500814)
(-0.000377075 -0.0946846 -0.000341301)
(0.000863565 -0.0952147 -0.500817)
(-0.000401915 -0.0952164 -0.000338933)
(0.00104545 -0.100769 0.000113693)
(0.000983967 -0.101602 4.93757e-05)
(0.000978264 -0.101326 0.000114455)
(0.000919161 -0.102168 4.87786e-05)
(0.00118674 -0.0946843 0.000270216)
(0.000477777 -0.095813 5.21966e-05)
(0.00115781 -0.0951754 0.000270015)
(0.000454866 -0.0963525 5.04767e-05)
(0.00100695 -0.102944 8.43045e-06)
(0.00100706 -0.102944 -8.44288e-06)
(0.000942792 -0.103541 8.12631e-06)
(0.000942632 -0.103542 -8.20504e-06)
(0.000398552 -0.0967038 7.12273e-06)
(0.00039864 -0.0967034 -8.35497e-06)
(0.000375694 -0.0972902 8.07435e-06)
(0.000375656 -0.0972898 -6.92656e-06)
(0.000984214 -0.101602 -4.90793e-05)
(0.00104485 -0.100769 -0.000113884)
(0.00091878 -0.102168 -4.92054e-05)
(0.00097852 -0.101325 -0.000114318)
(0.000478204 -0.0958129 -5.06781e-05)
(0.0011867 -0.0946846 -0.000269165)
(0.000454494 -0.0963524 -5.20214e-05)
(0.00115852 -0.0951758 -0.000271276)
(-0.003185 -0.100571 0.0001288)
(0.00454604 -0.100443 0.495475)
(-0.00327498 -0.101155 0.000127342)
(0.00448382 -0.101078 0.495495)
(-0.000377631 -0.0946853 0.000340568)
(0.000875362 -0.0945682 0.500813)
(-0.000402279 -0.0952171 0.000340239)
(0.000864981 -0.095215 0.500817)
(0.00468562 -0.0990787 -0.495379)
(-0.00299118 -0.0992946 -0.000131442)
(0.00461596 -0.0997772 -0.495399)
(-0.00309188 -0.0999511 -0.000130067)
(0.000907905 -0.0931948 -0.500797)
(-0.000331885 -0.0935066 -0.000343541)
(0.000893281 -0.0938952 -0.5008)
(-0.000359185 -0.0941152 -0.000341454)
(0.00118611 -0.0995438 0.000112603)
(0.00112372 -0.100359 4.95661e-05)
(0.00111338 -0.100176 0.000113178)
(0.00105249 -0.100999 4.92353e-05)
(0.00124534 -0.0935854 0.00026822)
(0.000529091 -0.0946292 5.23916e-05)
(0.00121424 -0.0941544 0.000268118)
(0.000502945 -0.0952389 5.07334e-05)
(0.00114549 -0.101641 8.82342e-06)
(0.00114562 -0.101641 -8.92339e-06)
(0.0010748 -0.10231 8.66717e-06)
(0.0010746 -0.102311 -8.67005e-06)
(0.00044795 -0.0954308 7.49942e-06)
(0.0004481 -0.0954304 -8.73026e-06)
(0.000422849 -0.0960847 8.527e-06)
(0.000422747 -0.0960843 -7.36505e-06)
(0.00112395 -0.100359 -4.94188e-05)
(0.0011855 -0.0995437 -0.000112607)
(0.00105214 -0.100999 -4.95402e-05)
(0.00111365 -0.100175 -0.000113191)
(0.000529414 -0.0946292 -5.08088e-05)
(0.00124529 -0.0935858 -0.000267232)
(0.000502654 -0.0952389 -5.2384e-05)
(0.00121499 -0.0941548 -0.000269314)
(-0.00299343 -0.0992946 0.000131516)
(0.00468673 -0.0990784 0.495375)
(-0.00309385 -0.099951 0.000130302)
(0.00461716 -0.0997769 0.495395)
(-0.000332451 -0.0935073 0.000342795)
(0.000909235 -0.093195 0.500796)
(-0.000359531 -0.0941159 0.000342793)
(0.000894691 -0.0938954 0.500799)
(0.00483752 -0.097578 -0.495277)
(-0.0028052 -0.0978701 -0.000133678)
(0.00476309 -0.0983459 -0.495295)
(-0.00289459 -0.0986013 -0.000132531)
(0.000952715 -0.0917032 -0.50078)
(-0.000268733 -0.0921691 -0.000345241)
(0.00093195 -0.0924645 -0.500782)
(-0.000307347 -0.0928574 -0.000343412)
(0.00133465 -0.0981631 0.000111462)
(0.001276 -0.0989621 4.95808e-05)
(0.00125885 -0.0988733 0.000111969)
(0.00119853 -0.0996805 4.9427e-05)
(0.00131152 -0.0923268 0.000266167)
(0.000586919 -0.0932973 5.2298e-05)
(0.00127612 -0.0929762 0.000266165)
(0.000557463 -0.0939823 5.07441e-05)
(0.00129735 -0.100187 9.1195e-06)
(0.00129748 -0.100187 -9.23025e-06)
(0.00122001 -0.100933 9.05641e-06)
(0.00121978 -0.100933 -9.02162e-06)
(0.000501978 -0.0940156 7.7627e-06)
(0.000502144 -0.0940153 -8.95453e-06)
(0.000474621 -0.0947417 8.82288e-06)
(0.00047447 -0.0947414 -7.68602e-06)
(0.0012762 -0.0989622 -4.9473e-05)
(0.00133409 -0.098163 -0.000111425)
(0.00119822 -0.0996805 -4.96434e-05)
(0.00125913 -0.0988732 -0.000112078)
(0.000587196 -0.0932973 -5.07074e-05)
(0.00131145 -0.0923273 -0.000265256)
(0.000557233 -0.0939824 -5.2427e-05)
(0.00127686 -0.0929767 -0.000267283)
(-0.00280714 -0.09787 0.00013376)
(0.00483865 -0.0975777 0.495273)
(-0.00289655 -0.0986012 0.000132751)
(0.00476429 -0.0983456 0.495292)
(-0.000269395 -0.0921698 0.000344509)
(0.000954019 -0.0917034 0.500778)
(-0.000307744 -0.0928581 0.00034475)
(0.000933338 -0.0924647 0.500781)
(0.00500026 -0.0959277 -0.495173)
(-0.00265566 -0.0962873 -0.000135547)
(0.00491944 -0.0967722 -0.495192)
(-0.00273296 -0.0970993 -0.000134579)
(0.00100883 -0.0900796 -0.500762)
(-0.000181693 -0.0906849 -0.000346493)
(0.000982929 -0.0909086 -0.500764)
(-0.000230546 -0.0914446 -0.000344904)
(0.00149161 -0.0966167 0.000110231)
(0.00144112 -0.0974003 4.94015e-05)
(0.00141062 -0.0974112 0.000110762)
(0.00135715 -0.0982022 4.93663e-05)
(0.00138535 -0.0909036 0.000264157)
(0.000650774 -0.0918073 5.19688e-05)
(0.00134674 -0.091636 0.000264202)
(0.000618406 -0.0925725 5.05438e-05)
(0.00146258 -0.0985716 9.29997e-06)
(0.0014627 -0.0985723 -9.41021e-06)
(0.0013786 -0.0993995 9.29643e-06)
(0.00137835 -0.0994002 -9.26108e-06)
(0.000560613 -0.0924488 7.91782e-06)
(0.00056078 -0.0924484 -9.05018e-06)
(0.000530974 -0.0932519 8.9798e-06)
(0.000530805 -0.0932515 -7.8943e-06)
(0.0014413 -0.0974004 -4.9313e-05)
(0.00149106 -0.0966166 -0.000110194)
(0.00135687 -0.0982023 -4.95587e-05)
(0.00141091 -0.0974111 -0.000110884)
(0.000651024 -0.0918073 -5.04195e-05)
(0.00138529 -0.0909041 -0.000263333)
(0.000618205 -0.0925726 -5.22083e-05)
(0.00134746 -0.0916364 -0.000265235)
(-0.00265755 -0.0962872 0.000135633)
(0.00500137 -0.0959274 0.495169)
(-0.0027346 -0.0970992 0.000134794)
(0.00492064 -0.0967719 0.495188)
(-0.000182399 -0.0906855 0.000345797)
(0.00101012 -0.0900797 0.500761)
(-0.000231051 -0.0914452 0.000346216)
(0.000984291 -0.0909087 0.500764)
(0.00517787 -0.0941162 -0.495067)
(-0.00248877 -0.094536 -0.000137112)
(0.00508951 -0.0950424 -0.495085)
(-0.00257764 -0.095433 -0.000136294)
(0.00107213 -0.0883111 -0.500745)
(-8.94577e-05 -0.0890548 -0.000347361)
(0.0010428 -0.0892141 -0.500747)
(-0.0001388 -0.0898886 -0.000346004)
(0.00166147 -0.0948969 0.00010906)
(0.00161911 -0.0956653 4.90734e-05)
(0.00157395 -0.0957786 0.000109547)
(0.00152874 -0.0965547 4.91229e-05)
(0.00146301 -0.0893101 0.000262197)
(0.000720023 -0.0901506 5.14526e-05)
(0.00142279 -0.0901284 0.000262312)
(0.000685014 -0.0910002 5.01758e-05)
(0.00164081 -0.0967865 9.37619e-06)
(0.00164092 -0.0967871 -9.48176e-06)
(0.00155041 -0.0977005 9.41878e-06)