/*--------------------------------*- C++ -*----------------------------------*\
  =========                 |
  \\      /  F ield         | OpenFOAM: The Open Source CFD Toolbox
   \\    /   O peration     | Website:  https://openfoam.org
    \\  /    A nd           | Version:  9
     \\/     M anipulation  |
\*---------------------------------------------------------------------------*/
FoamFile
{
    format      ascii;
    class       volScalarField;
    location    "0.2";
    object      nut;
}
// * * * * * * * * * * * * * * * * * * * * * * * * * * * * * * * * * * * * * //

dimensions      [0 2 -1 0 0 0 0];

internalField   nonuniform List<scalar> 
36360
(
0.00108679
0.000905621
0.00051289
0.000472645
0.000277333
0.00022137
0.000211741
0.00018779
0.000203134
0.000164638
0.000168307
0.000164465
0.00016857
0.00016591
0.00017388
0.000173307
0.000163441
0.000163441
0.000164057
0.000164057
0.000165835
0.000165835
0.000173284
0.000173284
0.000164638
0.000203132
0.000164465
0.000168307
0.00016591
0.00016857
0.000173307
0.00017388
0.000905619
0.00108679
0.000472645
0.000512889
0.00022137
0.000277333
0.00018779
0.000211741
0.00134726
0.00109782
0.00129503
0.00105983
0.000305888
0.000241418
0.000301193
0.000236402
0.000233701
0.000165358
0.000227516
0.000165238
0.000167256
0.000163301
0.000167407
0.000163738
0.000164063
0.000164063
0.000163957
0.000163957
0.000163201
0.000163201
0.000163642
0.000163642
0.000165359
0.000233705
0.000165239
0.000227516
0.000163301
0.000167256
0.000163738
0.000167407
0.00109781
0.00134726
0.00105984
0.00129504
0.000241413
0.000305886
0.000236403
0.000301194
0.00135221
0.00110164
0.00135394
0.00110253
0.000305696
0.0002427
0.000306172
0.000242684
0.000234135
0.000165379
0.000234432
0.000165374
0.000167205
0.000163218
0.000167237
0.000163232
0.000164074
0.000164074
0.000164074
0.000164074
0.000163122
0.000163122
0.000163133
0.000163133
0.00016538
0.000234134
0.000165376
0.000234428
0.000163218
0.000167205
0.000163232
0.000167236
0.00110168
0.00135225
0.00110248
0.00135386
0.000242697
0.000305692
0.000242673
0.000306162
0.00134171
0.00109392
0.00134681
0.00109774
0.000303852
0.000241461
0.000304762
0.000242167
0.000232454
0.000165379
0.000233245
0.000165379
0.000167095
0.000163201
0.00016715
0.000163209
0.000164073
0.000164073
0.000164073
0.000164073
0.000163109
0.000163109
0.000163116
0.000163116
0.000165381
0.000232454
0.000165381
0.000233241
0.000163201
0.000167094
0.000163209
0.00016715
0.00109406
0.00134181
0.00109779
0.00134685
0.000241462
0.000303853
0.000242164
0.000304757
0.00133277
0.00108722
0.00133714
0.00109052
0.000302224
0.000240114
0.000303038
0.000240798
0.000231025
0.000165377
0.000231758
0.000165378
0.000166985
0.000163181
0.000167041
0.000163191
0.000164071
0.000164072
0.000164072
0.000164072
0.000163092
0.000163092
0.000163101
0.000163101
0.000165378
0.000231026
0.000165379
0.000231763
0.000163181
0.000166985
0.000163191
0.000167042
0.00108732
0.00133299
0.00109083
0.0013375
0.000240108
0.000302227
0.000240811
0.000303057
0.00132348
0.00108019
0.001328
0.00108356
0.000300522
0.000238695
0.000301343
0.000239376
0.000229503
0.000165375
0.000230241
0.000165377
0.000166865
0.000163157
0.000166924
0.00016317
0.00016407
0.00016407
0.000164071
0.000164071
0.000163071
0.000163071
0.000163082
0.000163082
0.000165376
0.000229515
0.000165377
0.000230247
0.000163158
0.000166866
0.00016317
0.000166924
0.00108002
0.00132326
0.0010835
0.00132801
0.000238697
0.000300523
0.000239375
0.000301348
0.00131506
0.00107408
0.0013191
0.00107697
0.000299014
0.000237428
0.000299753
0.000238049
0.000228131
0.00016537
0.000228815
0.000165373
0.000166752
0.00016313
0.000166809
0.000163144
0.000164069
0.000164069
0.000164069
0.000164069
0.000163045
0.000163045
0.000163058
0.000163058
0.000165371
0.00022814
0.000165373
0.000228826
0.00016313
0.000166753
0.000163144
0.00016681
0.00107418
0.00131521
0.00107704
0.0013191
0.00023743
0.000299024
0.000238056
0.000299754
0.00130686
0.00106807
0.00131092
0.00107103
0.000297469
0.000236125
0.000298228
0.000236757
0.000226725
0.000165366
0.000227405
0.000165368
0.00016663
0.000163097
0.00016669
0.000163114
0.000164067
0.000164067
0.000164068
0.000164068
0.000163013
0.000163013
0.00016303
0.00016303
0.000165367
0.000226731
0.000165369
0.000227409
0.000163097
0.00016663
0.000163114
0.00016669
0.00106816
0.00130686
0.001071
0.00131089
0.00023613
0.000297481
0.000236751
0.000298231
0.0012989
0.0010624
0.00130298
0.00106528
0.000296087
0.000234958
0.000296776
0.000235552
0.000225485
0.000165359
0.000226107
0.000165362
0.000166514
0.000163058
0.000166573
0.000163078
0.000164066
0.000164066
0.000164067
0.000164067
0.000162976
0.000162976
0.000162995
0.000162995
0.00016536
0.000225491
0.000165364
0.000226105
0.000163058
0.000166513
0.000163078
0.000166572
0.00106287
0.00129953
0.00106558
0.00130323
0.000234968
0.000296095
0.000235544
0.000296773
0.00129113
0.00105696
0.00129488
0.00105961
0.000294644
0.00023372
0.000295344
0.000234321
0.000224189
0.000165355
0.000224822
0.000165357
0.000166386
0.000163013
0.000166449
0.000163036
0.000164065
0.000164065
0.000164065
0.000164065
0.000162933
0.000162933
0.000162955
0.000162955
0.000165355
0.000224216
0.000165357
0.000224848
0.000163013
0.000166387
0.000163036
0.000166451
0.00105689
0.00129106
0.00105976
0.00129523
0.000233749
0.000294666
0.00023436
0.000295386
0.00128304
0.00105127
0.00128691
0.00105393
0.000293223
0.000232522
0.000293915
0.000233105
0.000222999
0.000165349
0.000223585
0.000165352
0.000166258
0.00016296
0.000166322
0.000162987
0.000164063
0.000164063
0.000164064
0.000164064
0.000162882
0.000162882
0.000162908
0.000162908
0.000165349
0.000223028
0.000165352
0.000223612
0.00016296
0.00016626
0.000162987
0.000166324
0.00105153
0.00128332
0.0010541
0.00128703
0.000232567
0.000293277
0.000233142
0.000293942
0.00127424
0.00104518
0.00127865
0.00104813
0.000291756
0.00023128
0.000292475
0.000231879
0.0002218
0.000165344
0.000222382
0.000165347
0.000166122
0.0001629
0.000166189
0.000162931
0.000164062
0.000164062
0.000164063
0.000164063
0.000162823
0.000162823
0.000162854
0.000162854
0.000165344
0.00022181
0.000165347
0.000222403
0.0001629
0.000166122
0.000162931
0.000166191
0.00104539
0.00127452
0.00104836
0.0012789
0.000231298
0.000291789
0.000231914
0.000292527
0.001267
0.00104063
0.00127032
0.00104271
0.000290474
0.000230223
0.000291078
0.000230729
0.000220752
0.000165334
0.000221259
0.00016534
0.000165987
0.000162831
0.000166054
0.000162866
0.000164061
0.000164061
0.000164061
0.000164061
0.000162756
0.000162756
0.000162791
0.000162791
0.000165337
0.000220727
0.000165341
0.000221242
0.000162831
0.000165986
0.000162866
0.000166053
0.0010403
0.00126667
0.00104261
0.00127032
0.00023018
0.000290447
0.000230696
0.000291068
0.00125899
0.00103538
0.00126308
0.00103801
0.000289157
0.000229086
0.000289836
0.00022967
0.000219675
0.000165327
0.000220223
0.00016533
0.000165843
0.000162752
0.000165917
0.000162792
0.00016406
0.00016406
0.00016406
0.00016406
0.000162678
0.000162678
0.000162718
0.000162718
0.000165331
0.000219633
0.000165333
0.000220188
0.000162752
0.00016584
0.000162792
0.000165915
0.00103486
0.00125843
0.00103769
0.00126273
0.000229007
0.000289085
0.000229616
0.0002898
0.00125082
0.00103025
0.00125488
0.00103276
0.000287825
0.000227964
0.000288499
0.000228523
0.000218627
0.000165321
0.000219147
0.000165324
0.000165691
0.000162663
0.000165768
0.000162709
0.000164059
0.000164059
0.000164059
0.000164059
0.000162591
0.000162591
0.000162636
0.000162636
0.000165323
0.000218625
0.000165327
0.000219122
0.000162663
0.000165691
0.000162709
0.000165766
0.00102999
0.00125055
0.00103244
0.00125451
0.000227945
0.000287792
0.000228473
0.000288419
0.00124276
0.00102525
0.00124685
0.00102775
0.000286478
0.000226902
0.000287115
0.000227398
0.000217613
0.000165314
0.000218102
0.000165318
0.000165533
0.000162562
0.000165612
0.000162614
0.000164058
0.000164058
0.000164058
0.000164058
0.000162492
0.000162492
0.000162543
0.000162543
0.000165315
0.000217618
0.000165319
0.000218104
0.000162562
0.000165533
0.000162614
0.000165611
0.00102532
0.00124281
0.00102751
0.0012465
0.000226908
0.000286485
0.000227391
0.000287112
0.00123489
0.00102053
0.00123877
0.00102286
0.000285203
0.00022595
0.00028584
0.000226409
0.000216665
0.000165305
0.00021713
0.00016531
0.000165368
0.000162449
0.000165451
0.000162507
0.000164057
0.000164057
0.000164058
0.000164058
0.00016238
0.00016238
0.000162438
0.000162438
0.000165307
0.000216669
0.000165311
0.000217136
0.000162449
0.000165367
0.000162507
0.000165451
0.00102049
0.00123478
0.0010228
0.00123874
0.000225948
0.000285208
0.000226411
0.000285847
0.00122647
0.0010154
0.00123068
0.00101791
0.000283899
0.000225051
0.000284544
0.000225483
0.000215718
0.000165298
0.000216188
0.000165302
0.000165191
0.000162323
0.00016528
0.000162388
0.000164057
0.000164057
0.000164057
0.000164057
0.000162255
0.000162255
0.000162319
0.00016232
0.000165298
0.00021573
0.000165302
0.000216193
0.000162323
0.000165191
0.000162388
0.000165281
0.00101573
0.00122684
0.0010181
0.00123082
0.000225075
0.000283915
0.000225494
0.000284549
0.00121831
0.00101065
0.0012223
0.00101294
0.000282629
0.000224231
0.000283252
0.000224634
0.000214811
0.00016529
0.000215261
0.000165294
0.000165003
0.000162182
0.000165098
0.000162254
0.000164056
0.000164056
0.000164057
0.000164057
0.000162116
0.000162116
0.000162188
0.000162188
0.000165291
0.000214824
0.000165294
0.000215273
0.000162182
0.000165003
0.000162254
0.000165099
0.00101087
0.00121857
0.00101322
0.00122264
0.000224253
0.00028264
0.000224659
0.000283273
0.00120965
0.00100564
0.00121385
0.00100796
0.000281257
0.000223352
0.00028193
0.000223773
0.000213877
0.000165284
0.000214334
0.000165287
0.000164797
0.000162027
0.000164901
0.000162107
0.000164056
0.000164056
0.000164056
0.000164056
0.000161962
0.000161962
0.000162041
0.000162041
0.000165284
0.000213897
0.000165288
0.00021435
0.000162027
0.000164798
0.000162107
0.000164902
0.00100593
0.00121002
0.00100829
0.00121422
0.000223391
0.000281292
0.000223807
0.000281951
0.00120129
0.00100108
0.0012054
0.00100328
0.000279984
0.000222558
0.000280628
0.000222962
0.000213017
0.000165276
0.000213451
0.000165279
0.000164582
0.000161856
0.000164692
0.000161944
0.000164057
0.000164057
0.000164056
0.000164056
0.000161792
0.000161792
0.000161879
0.000161879
0.000165276
0.000213033
0.00016528
0.000213469
0.000161856
0.000164583
0.000161944
0.000164694
0.00100126
0.00120151
0.0010035
0.00120566
0.000222583
0.000280014
0.000222997
0.000280663
0.00119293
0.000996577
0.0011971
0.000998767
0.000278722
0.000221798
0.00027932
0.000222148
0.000212214
0.000165268
0.000212593
0.000165273
0.000164355
0.000161669
0.000164469
0.000161764
0.000164057
0.000164057
0.000164057
0.000164057
0.000161606
0.000161606
0.000161701
0.000161701
0.000165269
0.000212215
0.000165273
0.000212602
0.000161669
0.000164355
0.000161764
0.000164469
0.00099657
0.00119294
0.000998852
0.00119723
0.000221797
0.000278727
0.000222164
0.000279343
0.00118423
0.000991934
0.00118861
0.000994246
0.000277469
0.000221031
0.000278095
0.000221409
0.000211446
0.00016526
0.000211826
0.000165264
0.000164113
0.000161464
0.000164236
0.000161568
0.000164058
0.000164058
0.000164057
0.000164057
0.000161403
0.000161403
0.000161507
0.000161507
0.000165262
0.000211441
0.000165265
0.00021182
0.000161464
0.000164112
0.000161568
0.000164235
0.00099188
0.00118417
0.000994199
0.00118857
0.000221022
0.000277458
0.000221399
0.000278087
0.0011752
0.000987184
0.00117974
0.000989556
0.000276198
0.000220256
0.000276835
0.000220645
0.000210688
0.000165253
0.000211067
0.000165257
0.000163854
0.000161242
0.000163986
0.000161355
0.000164059
0.000164059
0.000164058
0.000164058
0.000161182
0.000161182
0.000161294
0.000161294
0.000165254
0.000210689
0.000165258
0.000211064
0.000161242
0.000163854
0.000161355
0.000163985
0.000987169
0.00117518
0.00098952
0.00117969
0.000220254
0.000276195
0.000220639
0.000276827
0.00116573
0.000982191
0.00117049
0.000984684
0.000274862
0.00021943
0.000275533
0.000219844
0.00020991
0.000165248
0.000210299
0.000165251
0.000163577
0.000161002
0.000163718
0.000161124
0.00016406
0.00016406
0.000164059
0.000164059
0.000160943
0.000160943
0.000161064
0.000161064
0.000165249
0.000209911
0.000165251
0.000210299
0.000161002
0.000163576
0.000161124
0.000163718
0.00098219
0.00116573
0.000984678
0.00117048
0.00021943
0.000274862
0.000219844
0.000275532
0.00115601
0.00097714
0.00116085
0.000979632
0.000273502
0.000218591
0.000274177
0.000219007
0.00020914
0.000165242
0.000209521
0.000165245
0.000163282
0.000160744
0.000163431
0.000160876
0.000164061
0.000164061
0.00016406
0.00016406
0.000160686
0.000160686
0.000160817
0.000160817
0.000165243
0.000209142
0.000165246
0.000209521
0.000160744
0.000163282
0.000160876
0.000163431
0.000977139
0.00115601
0.000979631
0.00116085
0.000218591
0.000273502
0.000219007
0.000274177
0.00114626
0.000972163
0.00115111
0.000974611
0.000272153
0.000217757
0.000272821
0.00021817
0.000208396
0.000165237
0.000208764
0.00016524
0.00016297
0.000160469
0.000163128
0.000160609
0.000164062
0.000164062
0.000164062
0.000164062
0.000160411
0.000160411
0.000160551
0.000160551
0.000165238
0.000208398
0.00016524
0.000208764
0.000160469
0.00016297
0.000160609
0.000163128
0.000972162
0.00114626
0.00097461
0.00115111
0.000217757
0.000272153
0.000218169
0.000272821
0.00113654
0.000967292
0.00114137
0.000969685
0.000270824
0.000216932
0.000271482
0.00021734
0.000207682
0.000165231
0.000208034
0.000165234
0.000162644
0.000160176
0.000162809
0.000160324
0.000164064
0.000164064
0.000164063
0.000164063
0.000160119
0.000160119
0.000160267
0.000160267
0.000165232
0.000207684
0.000165235
0.000208035
0.000160176
0.000162644
0.000160324
0.000162809
0.000967291
0.00113654
0.000969684
0.00114137
0.000216931
0.000270824
0.00021734
0.000271482
0.00112691
0.000962549
0.00113168
0.000964875
0.000269521
0.000216116
0.000270164
0.000216519
0.000206997
0.000165226
0.000207335
0.000165229
0.000162302
0.000159866
0.000162474
0.000160023
0.000164065
0.000164065
0.000164064
0.000164064
0.00015981
0.00015981
0.000159967
0.000159967
0.000165227
0.000206999
0.00016523
0.000207335
0.000159866
0.000162302
0.000160023
0.000162474
0.000962548
0.00112691
0.000964873
0.00113168
0.000216116
0.000269521
0.000216519
0.000270164
0.00111747
0.000958015
0.00112211
0.000960212
0.000268251
0.000215315
0.000268876
0.000215709
0.000206344
0.00016522
0.000206666
0.000165223
0.000161945
0.000159539
0.000162125
0.000159704
0.000164065
0.000164065
0.000164065
0.000164065
0.000159484
0.000159484
0.000159649
0.000159649
0.000165221
0.000206346
0.000165224
0.000206666
0.000159539
0.000161945
0.000159704
0.000162125
0.000958013
0.00111747
0.00096021
0.00112211
0.000215314
0.000268251
0.000215709
0.000268876
0.00110823
0.000953594
0.00111281
0.000955774
0.000267017
0.000214522
0.000267626
0.000214914
0.00020572
0.000165214
0.000206028
0.000165217
0.000161575
0.000159197
0.000161762
0.00015937
0.000164065
0.000164065
0.000164065
0.000164065
0.000159143
0.000159143
0.000159315
0.000159315
0.000165215
0.000205723
0.000165218
0.000206028
0.000159197
0.000161575
0.00015937
0.000161762
0.000953592
0.00110823
0.000955772
0.00111281
0.000214521
0.000267018
0.000214913
0.000267626
0.00109915
0.000949295
0.00110362
0.000951394
0.000265823
0.00021374
0.00026641
0.000214125
0.000205129
0.000165207
0.00020542
0.000165211
0.000161192
0.000158841
0.000161385
0.000159021
0.000164065
0.000164065
0.000164065
0.000164065
0.000158787
0.000158787
0.000158967
0.000158967
0.000165208
0.000205131
0.000165211
0.000205421
0.000158841
0.000161192
0.000159021
0.000161385
0.000949294
0.00109915
0.000951393
0.00110362
0.00021374
0.000265823
0.000214125
0.00026641
0.00109037
0.000945185
0.00109469
0.000947188
0.000264677
0.000212974
0.000265239
0.000213351
0.000204572
0.0001652
0.000204846
0.000165204
0.000160798
0.000158471
0.000160996
0.000158657
0.000164063
0.000164063
0.000164064
0.000164064
0.000158418
0.000158418
0.000158604
0.000158604
0.000165201
0.000204574
0.000165204
0.000204846
0.000158471
0.000160798
0.000158657
0.000160996
0.000945184
0.00109037
0.000947186
0.00109469
0.000212974
0.000264677
0.000213351
0.000265239
0.00108194
0.000941278
0.00108608
0.000943178
0.000263587
0.000212226
0.000264121
0.000212594
0.000204048
0.000165191
0.000204306
0.000165196
0.000160393
0.00015809
0.000160596
0.000158282
0.00016406
0.00016406
0.000164062
0.000164062
0.000158037
0.000158037
0.000158229
0.000158229
0.000165192
0.000204051
0.000165196
0.000204306
0.00015809
0.000160393
0.000158282
0.000160596
0.000941277
0.00108194
0.000943176
0.00108608
0.000212226
0.000263587
0.000212594
0.000264121
0.00107392
0.000937588
0.00107785
0.000939377
0.000262556
0.000211498
0.000263059
0.000211856
0.00020356
0.000165182
0.0002038
0.000165187
0.000159981
0.000157698
0.000160188
0.000157895
0.000164056
0.000164056
0.000164058
0.000164058
0.000157646
0.000157646
0.000157843
0.000157843
0.000165183
0.000203562
0.000165188
0.0002038
0.000157698
0.00015998
0.000157895
0.000160188
0.000937587
0.00107392
0.000939375
0.00107785
0.000211498
0.000262556
0.000211856
0.000263059
0.00106635
0.000934126
0.00107005
0.0009358
0.00026159
0.00021079
0.000262061
0.000211138
0.000203106
0.000165171
0.000203329
0.000165177
0.000159561
0.000157298
0.000159771
0.000157499
0.00016405
0.00016405
0.000164053
0.000164053
0.000157246
0.000157246
0.000157447
0.000157447
0.000165172
0.000203108
0.000165178
0.000203329
0.000157298
0.000159561
0.000157499
0.000159771
0.000934124
0.00106635
0.000935798
0.00107005
0.00021079
0.00026159
0.000211137
0.000262061
0.00105927
0.000930902
0.00106272
0.000932455
0.000260692
0.000210106
0.000261128
0.000210441
0.000202688
0.000165159
0.000202893
0.000165166
0.000159136
0.00015689
0.000159349
0.000157095
0.000164043
0.000164043
0.000164047
0.000164047
0.00015684
0.00015684
0.000157044
0.000157044
0.00016516
0.00020269
0.000165166
0.000202893
0.00015689
0.000159136
0.000157095
0.000159349
0.0009309
0.00105927
0.000932453
0.00106272
0.000210105
0.000260692
0.000210441
0.000261128
0.00105283
0.000927905
0.00105591
0.000929359
0.000259872
0.000209446
0.000260265
0.000209769
0.000202307
0.000165146
0.000202492
0.000165153
0.000158707
0.000156477
0.000158921
0.000156684
0.000164034
0.000164034
0.000164039
0.000164039
0.000156427
0.000156427
0.000156634
0.000156634
0.000165147
0.000202309
0.000165154
0.000202492
0.000156477
0.000158707
0.000156684
0.000158921
0.000927903
0.00105283
0.000929357
0.00105591
0.000209445
0.000259872
0.000209769
0.000260265
0.00104368
0.000918551
0.00104989
0.000925703
0.000259019
0.00020839
0.000259514
0.000209111
0.000201548
0.000165133
0.000202077
0.000165139
0.000158264
0.000156061
0.000158492
0.000156269
0.000164023
0.000164023
0.000164029
0.000164029
0.000156011
0.000156011
0.000156219
0.000156219
0.000165134
0.000201552
0.00016514
0.000202078
0.000156061
0.000158264
0.000156269
0.000158492
0.000918549
0.00104368
0.000925701
0.00104989
0.00020839
0.000259019
0.000209111
0.000259514
0.0011964
0.000989361
0.000546827
0.00049578
0.00118801
0.000980255
0.000548892
0.000489556
0.00021329
0.000164434
0.000169296
0.000164222
0.000212219
0.000164431
0.000169195
0.000164225
0.000163057
0.000163057
0.000163782
0.000163782
0.000163065
0.000163065
0.000163789
0.000163789
0.000164434
0.000213288
0.000164222
0.000169296
0.000164431
0.000212217
0.000164225
0.000169195
0.00098933
0.00119636
0.000495781
0.000546831
0.000980245
0.001188
0.000489556
0.000548891
0.00149615
0.00120648
0.00143686
0.00116505
0.0014791
0.0011941
0.00142261
0.00115418
0.000250441
0.000165235
0.00024303
0.000165089
0.000248879
0.000165234
0.000241618
0.000165088
0.000163686
0.000163686
0.000163576
0.000163576
0.000163697
0.000163697
0.000163587
0.000163587
0.000165237
0.000250434
0.00016509
0.000243032
0.000165235
0.000248889
0.000165089
0.000241619
0.00120646
0.00149614
0.00116511
0.00143691
0.00119436
0.00147932
0.00115419
0.00142257
0.00150595
0.00121316
0.00150644
0.0012137
0.00148856
0.00120127
0.00148833
0.001201
0.000251121
0.000165244
0.000251462
0.000165249
0.000249532
0.000165244
0.000249853
0.00016525
0.000163697
0.000163697
0.000163697
0.000163697
0.000163708
0.000163708
0.000163708
0.000163708
0.000165246
0.000251115
0.000165252
0.00025145
0.000165246
0.000249532
0.000165251
0.000249863
0.00121313
0.00150589
0.00121364
0.00150638
0.00120097
0.00148844
0.00120132
0.00148883
0.00149513
0.00120476
0.00150114
0.00120931
0.00147886
0.00119366
0.00148477
0.00119821
0.000248975
0.00016524
0.000250024
0.000165243
0.000247472
0.000165238
0.000248512
0.000165239
0.000163695
0.000163695
0.000163696
0.000163696
0.000163706
0.000163706
0.000163707
0.000163707
0.000165242
0.000248977
0.000165245
0.000250007
0.000165239
0.000247471
0.000165241
0.000248496
0.00120504
0.00149538
0.00120933
0.00150109
0.00119336
0.00147835
0.00119742
0.00148385
0.00148429
0.00119649
0.00148995
0.00120086
0.00146824
0.00118563
0.00147363
0.00118974
0.000247096
0.000165233
0.000248065
0.000165235
0.00024561
0.000165231
0.000246552
0.000165235
0.000163693
0.000163693
0.000163694
0.000163694
0.000163704
0.000163704
0.000163705
0.000163705
0.000165235
0.0002471
0.000165237
0.000248073
0.000165232
0.000245629
0.000165235
0.000246564
0.00119669
0.00148459
0.00120121
0.00149038
0.00118556
0.00146818
0.00118974
0.0014736
0.00147281
0.00118786
0.00147829
0.00119192
0.00145697
0.00117717
0.00146245
0.00118123
0.00024517
0.000165226
0.000246084
0.000165231
0.000243691
0.000165226
0.000244612
0.000165229
0.000163691
0.000163691
0.000163692
0.000163692
0.000163703
0.000163703
0.000163703
0.000163703
0.000165227
0.000245193
0.000165232
0.000246092
0.000165226
0.00024372
0.000165229
0.000244637
0.00118816
0.00147321
0.00119212
0.00147853
0.00117728
0.00145705
0.00118122
0.0014624
0.00146254
0.00118037
0.00146764
0.00118405
0.00144679
0.00116968
0.00145186
0.0011734
0.000243413
0.000165218
0.000244297
0.000165222
0.000241961
0.000165218
0.000242826
0.000165222
0.00016369
0.00016369
0.000163691
0.000163691
0.000163701
0.000163701
0.000163702
0.000163702
0.000165219
0.000243428
0.000165222
0.000244321
0.000165218
0.000242005
0.000165222
0.000242861
0.00118045
0.00146268
0.0011842
0.00146786
0.00117018
0.00144729
0.0011736
0.001452
0.00145315
0.00117352
0.00145772
0.0011769
0.00143681
0.00116226
0.00144176
0.00116596
0.000241685
0.000165207
0.000242522
0.000165213
0.000240232
0.000165211
0.000241067
0.000165215
0.000163688
0.000163688
0.000163689
0.000163689
0.0001637
0.0001637
0.000163701
0.000163701
0.000165211
0.000241657
0.000165214
0.000242527
0.00016521
0.000240264
0.000165214
0.000241105
0.00117304
0.00145272
0.00117686
0.0014578
0.00116283
0.00143733
0.00116644
0.00144226
0.00144296
0.00116607
0.00144803
0.0011697
0.00142695
0.00115519
0.00143166
0.00115849
0.00024004
0.000165199
0.000240864
0.000165203
0.0002387
0.0001652
0.000239458
0.000165206
0.000163687
0.000163687
0.000163688
0.000163688
0.000163699
0.000163699
0.000163699
0.000163699
0.000165201
0.000240025
0.000165206
0.000240836
0.0001652
0.000238731
0.000165205
0.000239491
0.00116563
0.0014425
0.00116923
0.00144752
0.00115608
0.00142805
0.00115941
0.00143261
0.00143262
0.00115854
0.00143775
0.00116227
0.00141691
0.0011479
0.00142188
0.00115149
0.000238376
0.000165192
0.000239173
0.000165196
0.000237078
0.000165194
0.000237867
0.000165197
0.000163686
0.000163686
0.000163686
0.000163686
0.000163698
0.000163698
0.000163698
0.000163698
0.000165194
0.00023837
0.000165198
0.000239161
0.000165195
0.000237105
0.000165197
0.000237898
0.0011582
0.00143204
0.00116174
0.00143713
0.00114819
0.00141726
0.00115206
0.00142269
0.00142265
0.00115161
0.00142736
0.0011548
0.00140747
0.0011413
0.00141202
0.00114443
0.000236947
0.000165181
0.000237641
0.000165187
0.000235684
0.000165184
0.000236362
0.00016519
0.000163685
0.000163685
0.000163685
0.000163685
0.000163697
0.000163697
0.000163697
0.000163697
0.000165181
0.000236988
0.000165188
0.000237669
0.000165183
0.000235728
0.000165189
0.0002364
0.00115217
0.00142336
0.00115516
0.00142759
0.00114215
0.00140843
0.00114497
0.00141251
0.00141278
0.00114477
0.00141763
0.00114809
0.00139776
0.00113461
0.00140253
0.00113784
0.000235463
0.000165174
0.000236183
0.000165178
0.000234249
0.000165175
0.000234953
0.000165179
0.000163684
0.000163684
0.000163684
0.000163684
0.000163696
0.000163696
0.000163697
0.000163697
0.000165174
0.000235492
0.000165179
0.000236209
0.000165177
0.000234244
0.00016518
0.000234977
0.00114514
0.00141312
0.0011483
0.00141794
0.00113477
0.00139807
0.00113841
0.00140333
0.00140394
0.00113892
0.00140818
0.00114172
0.00138934
0.00112921
0.00139316
0.0011316
0.000234209
0.000165162
0.000234839
0.000165167
0.000233004
0.000165165
0.000233606
0.000165171
0.000163683
0.000163684
0.000163684
0.000163684
0.000163696
0.000163696
0.000163696
0.000163696
0.000165163
0.000234205
0.000165168
0.000234856
0.000165167
0.000232983
0.000165173
0.000233587
0.00113925
0.00140435
0.00114224
0.00140876
0.0011289
0.00138904
0.00113158
0.00139326
0.00139421
0.00113239
0.001399
0.00113554
0.00137995
0.00112277
0.00138497
0.00112616
0.000232837
0.000165155
0.000233508
0.000165159
0.000231677
0.000165158
0.000232337
0.000165161
0.000163683
0.000163683
0.000163683
0.000163683
0.000163696
0.000163696
0.000163696
0.000163696
0.000165155
0.000232867
0.00016516
0.000233506
0.000165158
0.000231693
0.000165162
0.000232329
0.00113294
0.00139477
0.00113577
0.00139923
0.00112299
0.00138005
0.00112595
0.00138462
0.00138504
0.00112666
0.00138918
0.00112909
0.00137114
0.00111725
0.00137529
0.00111983
0.000231634
0.000165145
0.000232203
0.000165151
0.000230505
0.000165148
0.000231072
0.000165154
0.000163683
0.000163683
0.000163683
0.000163683
0.000163696
0.000163696
0.000163696
0.000163696
0.000165147
0.000231648
0.000165151
0.000232249
0.000165147
0.000230555
0.000165153
0.000231112
0.00112702
0.00138553
0.00112991
0.00139016
0.00111784
0.00137183
0.00112037
0.00137585
0.00137603
0.00112097
0.00138052
0.00112379
0.00136182
0.00111136
0.00136643
0.00111417
0.000230405
0.000165138
0.000231012
0.000165141
0.000229303
0.000165141
0.000229891
0.000165145
0.000163684
0.000163684
0.000163683
0.000163683
0.000163697
0.000163697
0.000163697
0.000163697
0.000165138
0.000230441
0.000165142
0.00023103
0.000165141
0.000229334
0.000165144
0.000229934
0.00112154
0.00137671
0.00112433
0.00138114
0.00111168
0.00136229
0.00111463
0.00136699
0.00136695
0.00111557
0.00137146
0.00111821
0.0013528
0.0011058
0.00135735
0.00110861
0.000229299
0.000165129
0.000229858
0.000165133
0.000228183
0.000165135
0.000228732
0.000165138
0.000163685
0.000163685
0.000163684
0.000163684
0.000163699
0.000163699
0.000163698
0.000163698
0.000165132
0.000229283
0.000165135
0.000229857
0.000165133
0.000228234
0.000165138
0.00022877
0.00111563
0.00136718
0.00111859
0.00137201
0.00110612
0.00135305
0.00110872
0.00135751
0.00135801
0.00111035
0.00136253
0.00111298
0.00134342
0.00110022
0.00134805
0.00110293
0.000228194
0.000165122
0.000228728
0.000165126
0.000227099
0.000165128
0.000227632
0.000165131
0.000163686
0.000163686
0.000163685
0.000163685
0.000163701
0.000163701
0.000163699
0.0001637
0.000165123
0.000228206
0.000165127
0.000228733
0.000165128
0.000227138
0.000165131
0.000227669
0.00111044
0.00135811
0.0011129
0.00136248
0.00110074
0.00134396
0.00110334
0.00134846
0.00134929
0.00110559
0.00135353
0.00110784
0.00133462
0.00109542
0.00133877
0.00109758
0.00022721
0.000165114
0.000227684
0.000165119
0.000226134
0.00016512
0.000226601
0.000165124
0.000163689
0.000163689
0.000163687
0.000163687
0.000163703
0.000163703
0.000163702
0.000163702
0.000165115
0.0002272
0.00016512
0.000227684
0.000165121
0.000226147
0.000165124
0.00022663
0.00110542
0.00134915
0.00110779
0.00135355
0.00109573
0.00133509
0.00109817
0.00133946
0.00134063
0.00110096
0.00134499
0.00110327
0.0013258
0.0010906
0.0013302
0.00109296
0.000226245
0.000165108
0.000226717
0.000165111
0.00022516
0.000165114
0.000225643
0.000165117
0.000163692
0.000163692
0.00016369
0.00016369
0.000163707
0.000163707
0.000163705
0.000163705
0.000165109
0.000226225
0.000165113
0.00022669
0.000165116
0.000225147
0.000165118
0.000225637
0.00110077
0.00134038
0.00110293
0.0013446
0.00109061
0.00132582
0.00109306
0.00133038
0.00133197
0.00109649
0.00133629
0.00109873
0.00131679
0.00108589
0.0013212
0.00108814
0.000225342
0.000165101
0.000225792
0.000165104
0.000224228
0.000165109
0.000224693
0.000165112
0.000163696
0.000163696
0.000163694
0.000163694
0.000163711
0.000163711
0.000163709
0.000163709
0.000165103
0.000225337
0.000165106
0.000225778
0.000165111
0.000224225
0.000165113
0.000224683
0.00109633
0.00133175
0.00109852
0.00133606
0.00108592
0.00131686
0.0010882
0.00132128
0.0013226
0.00109157
0.00132731
0.00109402
0.0013076
0.00108109
0.0013122
0.00108345
0.000224444
0.000165098
0.000224887
0.000165099
0.000223334
0.000165106
0.000223764
0.000165108
0.000163701
0.000163701
0.000163698
0.000163698
0.000163717
0.000163717
0.000163714
0.000163714
0.000165099
0.000224445
0.000165101
0.000224884
0.000165108
0.000223332
0.000165109
0.000223762
0.00109155
0.00132255
0.00109394
0.00132719
0.00108108
0.0013076
0.00108348
0.00131225
0.00131292
0.00108662
0.00131773
0.00108905
0.00129811
0.00107625
0.00130286
0.00107864
0.000223585
0.000165096
0.000224006
0.000165097
0.000222498
0.000165105
0.000222908
0.000165105
0.000163707
0.000163707
0.000163704
0.000163704
0.000163723
0.000163723
0.00016372
0.00016372
0.000165098
0.000223587
0.000165098
0.000224007
0.000165106
0.000222498
0.000165106
0.000222906
0.00108662
0.00131292
0.00108904
0.00131772
0.00107624
0.00129809
0.00107862
0.00130284
0.00130318
0.0010818
0.00130803
0.00108417
0.00128839
0.0010714
0.00129325
0.00107381
0.000222775
0.000165096
0.000223175
0.000165096
0.000221688
0.000165105
0.000222091
0.000165105
0.000163714
0.000163714
0.000163711
0.000163711
0.000163731
0.000163731
0.000163727
0.000163727
0.000165097
0.000222778
0.000165097
0.000223177
0.000165106
0.000221689
0.000165106
0.000222091
0.0010818
0.00130318
0.00108417