/*--------------------------------*- C++ -*----------------------------------*\
  =========                 |
  \\      /  F ield         | OpenFOAM: The Open Source CFD Toolbox
   \\    /   O peration     | Website:  https://openfoam.org
    \\  /    A nd           | Version:  9
     \\/     M anipulation  |
\*---------------------------------------------------------------------------*/
FoamFile
{
    format      ascii;
    class       volScalarField;
    location    "0.4";
    object      p;
}
// * * * * * * * * * * * * * * * * * * * * * * * * * * * * * * * * * * * * * //

dimensions      [0 2 -2 0 0 0 0];

internalField   nonuniform List<scalar> 
4545
(
20.0966
20.0965
20.0965
20.0965
20.0966
20.0898
20.0898
20.0898
20.0898
20.0898
20.0832
20.0832
20.0832
20.0832
20.0832
20.0767
20.0767
20.0767
20.0767
20.0767
20.0704
20.0704
20.0704
20.0704
20.0704
20.0643
20.0643
20.0643
20.0643
20.0643
20.0583
20.0583
20.0583
20.0583
20.0583
20.0525
20.0525
20.0525
20.0525
20.0525
20.0469
20.0469
20.0469
20.0469
20.0469
20.0416
20.0416
20.0416
20.0416
20.0416
20.0365
20.0365
20.0365
20.0365
20.0365
20.0316
20.0316
20.0316
20.0316
20.0316
20.0269
20.0269
20.0269
20.0269
20.0269
20.0226
20.0226
20.0226
20.0226
20.0226
20.0185
20.0185
20.0185
20.0185
20.0185
20.0146
20.0146
20.0146
20.0146
20.0146
20.0111
20.0111
20.0111
20.0111
20.0111
20.0079
20.0079
20.0079
20.0079
20.0079
20.005
20.0049
20.005
20.0049
20.005
20.0024
20.0024
20.0024
20.0024
20.0024
20.0001
20.0001
20.0001
20.0001
20.0001
19.9982
19.9981
19.9981
19.9981
19.9982
19.9965
19.9965
19.9965
19.9965
19.9965
19.9953
19.9952
19.9952
19.9952
19.9953
19.9943
19.9943
19.9943
19.9943
19.9943
19.9936
19.9936
19.9936
19.9936
19.9936
19.9933
19.9933
19.9933
19.9933
19.9933
19.9932
19.9932
19.9932
19.9932
19.9932
19.9934
19.9934
19.9934
19.9934
19.9934
19.9939
19.9939
19.9939
19.9939
19.9939
19.9946
19.9945
19.9945
19.9945
19.9946
19.9954
19.9954
19.9954
19.9954
19.9954
19.9965
19.9965
19.9965
19.9965
19.9965
19.9977
19.9977
19.9977
19.9977
19.9977
19.999
19.999
19.999
19.999
19.999
20.0004
20.0004
20.0004
20.0004
20.0004
20.0019
20.0019
20.0019
20.0019
20.0019
20.0035
20.0034
20.0034
20.0034
20.0035
20.005
20.005
20.005
20.005
20.005
20.0966
20.0966
20.0966
20.0966
20.0966
20.0898
20.0898
20.0898
20.0898
20.0898
20.0832
20.0832
20.0832
20.0832
20.0832
20.0768
20.0768
20.0768
20.0768
20.0768
20.0705
20.0705
20.0705
20.0705
20.0705
20.0643
20.0643
20.0643
20.0643
20.0643
20.0584
20.0584
20.0584
20.0584
20.0584
20.0527
20.0527
20.0527
20.0527
20.0527
20.0471
20.0471
20.0471
20.0471
20.0471
20.0418
20.0418
20.0418
20.0418
20.0418
20.0367
20.0367
20.0367
20.0367
20.0367
20.0319
20.0319
20.0319
20.0319
20.0319
20.0273
20.0273
20.0273
20.0273
20.0273
20.023
20.023
20.023
20.023
20.023
20.019
20.019
20.019
20.019
20.019
20.0152
20.0152
20.0152
20.0152
20.0152
20.0118
20.0118
20.0118
20.0118
20.0118
20.0087
20.0087
20.0087
20.0087
20.0087
20.0059
20.0059
20.0059
20.0059
20.0059
20.0034
20.0034
20.0034
20.0034
20.0034
20.0013
20.0013
20.0013
20.0013
20.0013
19.9995
19.9995
19.9995
19.9995
19.9995
19.998
19.998
19.998
19.998
19.998
19.9969
19.9969
19.9969
19.9969
19.9969
19.9961
19.9962
19.9962
19.9962
19.9961
19.9957
19.9957
19.9957
19.9957
19.9957
19.9955
19.9956
19.9956
19.9956
19.9955
19.9957
19.9957
19.9957
19.9957
19.9957
19.9961
19.9961
19.9961
19.9961
19.9961
19.9968
19.9968
19.9968
19.9968
19.9968
19.9977
19.9977
19.9977
19.9977
19.9977
19.9988
19.9988
19.9988
19.9988
19.9988
20
20.0001
20.0001
20.0001
20
20.0014
20.0015
20.0015
20.0015
20.0014
20.003
20.003
20.003
20.003
20.003
20.0046
20.0046
20.0046
20.0046
20.0046
20.0062
20.0063
20.0062
20.0063
20.0062
20.0079
20.008
20.0079
20.008
20.0079
20.0096
20.0097
20.0096
20.0097
20.0096
20.0965
20.0965
20.0965
20.0965
20.0965
20.0898
20.0898
20.0898
20.0898
20.0898
20.0832
20.0832
20.0832
20.0832
20.0832
20.0767
20.0767
20.0767
20.0767
20.0767
20.0704
20.0704
20.0704
20.0704
20.0704
20.0643
20.0643
20.0643
20.0643
20.0643
20.0583
20.0583
20.0583
20.0583
20.0583
20.0526
20.0526
20.0526
20.0526
20.0526
20.047
20.047
20.047
20.047
20.047
20.0417
20.0417
20.0417
20.0417
20.0417
20.0366
20.0366
20.0366
20.0366
20.0366
20.0318
20.0318
20.0318
20.0318
20.0318
20.0272
20.0272
20.0272
20.0272
20.0272
20.0228
20.0228
20.0228
20.0228
20.0228
20.0188
20.0188
20.0188
20.0188
20.0188
20.015
20.015
20.015
20.015
20.015
20.0116
20.0116
20.0116
20.0116
20.0116
20.0085
20.0085
20.0085
20.0085
20.0085
20.0057
20.0056
20.0056
20.0056
20.0057
20.0032
20.0032
20.0032
20.0032
20.0032
20.0011
20.0011
20.0011
20.0011
20.0011
19.9993
19.9993
19.9993
19.9993
19.9993
19.9979
19.9979
19.9979
19.9979
19.9979
19.9968
19.9968
19.9968
19.9968
19.9968
19.9961
19.996
19.996
19.996
19.9961
19.9957
19.9957
19.9956
19.9957
19.9957
19.9956
19.9956
19.9956
19.9956
19.9956
19.9958
19.9958
19.9958
19.9958
19.9958
19.9963
19.9963
19.9963
19.9963
19.9963
19.9971
19.9971
19.9971
19.9971
19.9971
19.9981
19.9981
19.9981
19.9981
19.9981
19.9994
19.9993
19.9993
19.9993
19.9994
20.0008
20.0007
20.0007
20.0007
20.0008
20.0023
20.0023
20.0023
20.0023
20.0023
20.004
20.0039
20.0039
20.0039
20.004
20.0057
20.0057
20.0057
20.0057
20.0057
20.0075
20.0075
20.0075
20.0075
20.0075
20.0093
20.0093
20.0093
20.0093
20.0093
20.0111
20.0111
20.0111
20.0111
20.0111
20.0965
20.0965
20.0965
20.0965
20.0965
20.0898
20.0898
20.0898
20.0898
20.0898
20.0831
20.0831
20.0831
20.0831
20.0831
20.0766
20.0766
20.0766
20.0766
20.0766
20.0703
20.0703
20.0703
20.0703
20.0703
20.0641
20.0641
20.0641
20.0641
20.0641
20.0582
20.0582
20.0582
20.0582
20.0582
20.0524
20.0524
20.0524
20.0524
20.0524
20.0468
20.0468
20.0468
20.0468
20.0468
20.0414
20.0414
20.0414
20.0414
20.0414
20.0363
20.0363
20.0363
20.0363
20.0363
20.0314
20.0314
20.0314
20.0314
20.0314
20.0267
20.0267
20.0267
20.0267
20.0267
20.0223
20.0223
20.0223
20.0223
20.0223
20.0182
20.0182
20.0182
20.0182
20.0182
20.0144
20.0144
20.0144
20.0144
20.0144
20.0109
20.0109
20.0109
20.0109
20.0109
20.0077
20.0077
20.0077
20.0077
20.0077
20.0048
20.0048
20.0048
20.0048
20.0048
20.0023
20.0023
20.0023
20.0023
20.0023
20.0001
20.0001
20.0001
20.0001
20.0001
19.9983
19.9983
19.9983
19.9983
19.9983
19.9968
19.9968
19.9968
19.9968
19.9968
19.9957
19.9957
19.9957
19.9957
19.9957
19.995
19.995
19.995
19.995
19.995
19.9946
19.9946
19.9946
19.9946
19.9946
19.9945
19.9945
19.9945
19.9945
19.9945
19.9948
19.9948
19.9948
19.9948
19.9948
19.9953
19.9953
19.9953
19.9953
19.9953
19.9962
19.9962
19.9962
19.9962
19.9962
19.9973
19.9973
19.9973
19.9973
19.9973
19.9986
19.9986
19.9986
19.9986
19.9986
20.0001
20.0001
20.0001
20.0001
20.0001
20.0018
20.0018
20.0018
20.0018
20.0018
20.0036
20.0036
20.0036
20.0036
20.0036
20.0055
20.0055
20.0055
20.0055
20.0055
20.0074
20.0074
20.0074
20.0074
20.0074
20.0094
20.0094
20.0094
20.0094
20.0094
20.0113
20.0113
20.0113
20.0113
20.0113
20.0965
20.0965
20.0965
20.0965
20.0965
20.0897
20.0897
20.0897
20.0897
20.0897
20.083
20.083
20.083
20.083
20.083
20.0765
20.0765
20.0765
20.0765
20.0765
20.0701
20.0701
20.0701
20.0701
20.0701
20.0639
20.0639
20.0639
20.0639
20.0639
20.0579
20.0579
20.0579
20.0579
20.0579
20.052
20.0521
20.0521
20.0521
20.052
20.0464
20.0464
20.0464
20.0464
20.0464
20.041
20.041
20.041
20.041
20.041
20.0358
20.0358
20.0358
20.0358
20.0358
20.0308
20.0308
20.0308
20.0308
20.0308
20.026
20.026
20.026
20.026
20.026
20.0216
20.0216
20.0216
20.0216
20.0216
20.0173
20.0173
20.0173
20.0173
20.0173
20.0134
20.0134
20.0134
20.0134
20.0134
20.0098
20.0098
20.0098
20.0098
20.0098
20.0064
20.0064
20.0064
20.0064
20.0064
20.0034
20.0034
20.0034
20.0034
20.0034
20.0008
20.0008
20.0008
20.0008
20.0008
19.9984
19.9984
19.9984
19.9984
19.9984
19.9965
19.9965
19.9965
19.9965
19.9965
19.9949
19.9949
19.9949
19.9949
19.9949
19.9936
19.9936
19.9936
19.9936
19.9936
19.9928
19.9928
19.9928
19.9928
19.9928
19.9923
19.9923
19.9923
19.9923
19.9923
19.9921
19.9921
19.9921
19.9921
19.9921
19.9923
19.9923
19.9923
19.9923
19.9923
19.9928
19.9928
19.9928
19.9928
19.9928
19.9937
19.9937
19.9937
19.9937
19.9937
19.9948
19.9948
19.9948
19.9948
19.9948
19.9961
19.9961
19.9961
19.9961
19.9961
19.9977
19.9977
19.9977
19.9977
19.9977
19.9994
19.9994
19.9994
19.9994
19.9994
20.0013
20.0013
20.0013
20.0013
20.0013
20.0032
20.0032
20.0032
20.0032
20.0032
20.0053
20.0052
20.0052
20.0052
20.0053
20.0073
20.0073
20.0073
20.0073
20.0073
20.0093
20.0093
20.0093
20.0093
20.0093
20.0965
20.0965
20.0965
20.0965
20.0965
20.0896
20.0896
20.0896
20.0896
20.0896
20.0829
20.0829
20.0829
20.0829
20.0829
20.0763
20.0763
20.0763
20.0763
20.0763
20.0699
20.0699
20.0699
20.0699
20.0699
20.0636
20.0636
20.0636
20.0636
20.0636
20.0575
20.0575
20.0575
20.0575
20.0575
20.0516
20.0516
20.0516
20.0516
20.0516
20.0459
20.0459
20.0459
20.0459
20.0459
20.0404
20.0404
20.0404
20.0404
20.0404
20.0351
20.0351
20.0351
20.0351
20.0351
20.03
20.03
20.03
20.03
20.03
20.0251
20.0251
20.0251
20.0251
20.0251
20.0205
20.0205
20.0205
20.0205
20.0205
20.0161
20.0161
20.0161
20.0161
20.0161
20.012
20.012
20.012
20.012
20.012
20.0082
20.0082
20.0082
20.0082
20.0082
20.0047
20.0047
20.0047
20.0047
20.0047
20.0015
20.0015
20.0015
20.0015
20.0015
19.9986
19.9986
19.9986
19.9986
19.9986
19.9961
19.9961
19.9961
19.9961
19.9961
19.9939
19.9939
19.9939
19.9939
19.9939
19.992
19.992
19.992
19.992
19.992
19.9906
19.9906
19.9906
19.9906
19.9906
19.9895
19.9895
19.9895
19.9895
19.9895
19.9888
19.9888
19.9888
19.9888
19.9888
19.9884
19.9884
19.9884
19.9884
19.9884
19.9885
19.9885
19.9885
19.9885
19.9885
19.9888
19.9888
19.9888
19.9888
19.9888
19.9895
19.9895
19.9895
19.9895
19.9895
19.9905
19.9905
19.9905
19.9905
19.9905
19.9918
19.9918
19.9918
19.9918
19.9918
19.9933
19.9933
19.9933
19.9933
19.9933
19.995
19.995
19.995
19.995
19.995
19.9968
19.9968
19.9968
19.9968
19.9968
19.9988
19.9988
19.9988
19.9988
19.9988
20.0009
20.0008
20.0008
20.0008
20.0009
20.0029
20.0029
20.0029
20.0029
20.0029
20.005
20.005
20.005
20.005
20.005
20.0965
20.0965
20.0965
20.0965
20.0965
20.0895
20.0895
20.0895
20.0895
20.0895
20.0828
20.0828
20.0828
20.0828
20.0828
20.0761
20.0761
20.0761
20.0761
20.0761
20.0696
20.0696
20.0696
20.0696
20.0696
20.0633
20.0633
20.0633
20.0633
20.0633
20.0571
20.0571
20.0571
20.0571
20.0571
20.0512
20.0512
20.0512
20.0512
20.0512
20.0453
20.0453
20.0453
20.0453
20.0453
20.0397
20.0397
20.0397
20.0397
20.0397
20.0343
20.0343
20.0343
20.0343
20.0343
20.029
20.029
20.029
20.029
20.029
20.024
20.024
20.024
20.024
20.024
20.0192
20.0192
20.0192
20.0192
20.0192
20.0146
20.0147
20.0147
20.0147
20.0146
20.0103
20.0103
20.0103
20.0103
20.0103
20.0063
20.0063
20.0063
20.0063
20.0063
20.0025
20.0025
20.0025
20.0025
20.0025
19.999
19.999
19.999
19.999
19.999
19.9959
19.9959
19.9959
19.9959
19.9959
19.993
19.993
19.993
19.993
19.993
19.9905
19.9905
19.9905
19.9905
19.9905
19.9884
19.9884
19.9884
19.9884
19.9884
19.9866
19.9866
19.9866
19.9866
19.9866
19.9851
19.9851
19.9851
19.9851
19.9851
19.9841
19.9841
19.9841
19.9841
19.9841
19.9834
19.9834
19.9834
19.9834
19.9834
19.9832
19.9832
19.9832
19.9832
19.9832
19.9832
19.9832
19.9832
19.9832
19.9832
19.9837
19.9837
19.9837
19.9837
19.9837
19.9844
19.9844
19.9844
19.9844
19.9844
19.9855
19.9855
19.9855
19.9855
19.9855
19.9868
19.9868
19.9868
19.9868
19.9868
19.9884
19.9884
19.9884
19.9884
19.9884
19.9901
19.9901
19.9901
19.9901
19.9901
19.992
19.992
19.992
19.992
19.992
19.994
19.994
19.994
19.994
19.994
19.9961
19.9961
19.9961
19.9961
19.9961
19.9982
19.9981
19.9981
19.9981
19.9982
20.0965
20.0965
20.0965
20.0965
20.0965
20.0895
20.0895
20.0895
20.0895
20.0895
20.0826
20.0826
20.0826
20.0826
20.0826
20.0759
20.0759
20.0759
20.0759
20.0759
20.0693
20.0693
20.0693
20.0693
20.0693
20.0629
20.0629
20.0629
20.0629
20.0629
20.0567
20.0567
20.0567
20.0567
20.0567
20.0506
20.0506
20.0506
20.0506
20.0506
20.0447
20.0447
20.0447
20.0447
20.0447
20.0389
20.0389
20.0389
20.0389
20.0389
20.0333
20.0333
20.0333
20.0333
20.0333
20.0279
20.0279
20.0279
20.0279
20.0279
20.0227
20.0227
20.0227
20.0227
20.0227
20.0177
20.0177
20.0177
20.0177
20.0177
20.0129
20.0129
20.0129
20.0129
20.0129
20.0084
20.0084
20.0084
20.0084
20.0084
20.004
20.004
20.004
20.004
20.004
19.9999
19.9999
19.9999
19.9999
19.9999
19.9961
19.9961
19.9961
19.9961
19.9961
19.9926
19.9926
19.9926
19.9926
19.9926
19.9893
19.9893
19.9893
19.9893
19.9893
19.9864
19.9864
19.9864
19.9864
19.9864
19.9838
19.9838
19.9838
19.9838
19.9838
19.9816
19.9816
19.9816
19.9816
19.9816
19.9797
19.9797
19.9797
19.9797
19.9797
19.9782
19.9782
19.9782
19.9782
19.9782
19.9771
19.9771
19.9771
19.9771
19.9771
19.9763
19.9763
19.9763
19.9763
19.9763
19.976
19.976
19.976
19.976
19.976
19.976
19.976
19.976
19.976
19.976
19.9764
19.9763
19.9763
19.9763
19.9764
19.9771
19.977
19.977
19.977
19.9771
19.9781
19.9781
19.9781
19.9781
19.9781
19.9794
19.9793
19.9793
19.9793
19.9794
19.9809
19.9809
19.9809
19.9809
19.9809
19.9826
19.9826
19.9826
19.9826
19.9826
19.9845
19.9845
19.9844
19.9845
19.9845
19.9864
19.9864
19.9864
19.9864
19.9864
19.9885
19.9884
19.9884
19.9884
19.9885
20.0964
20.0964
20.0964
20.0964
20.0964
20.0894
20.0894
20.0894
20.0894
20.0894
20.0824
20.0824
20.0824
20.0824
20.0824
20.0757
20.0757
20.0757
20.0757
20.0757
20.069
20.069
20.069
20.069
20.069
20.0625
20.0625
20.0625
20.0625
20.0625
20.0562
20.0562
20.0562
20.0562
20.0562
20.05
20.05
20.05
20.05
20.05
20.044
20.044
20.044
20.044
20.044
20.0381
20.0381
20.0381
20.0381
20.0381
20.0323
20.0323
20.0323
20.0323
20.0323
20.0267
20.0267
20.0267
20.0267
20.0267
20.0213
20.0213
20.0213
20.0213
20.0213
20.0161
20.0161
20.0161
20.0161
20.0161
20.011
20.011
20.011
20.011
20.011
20.0061
20.0061
20.0061
20.0061
20.0061
20.0015
20.0015
20.0015
20.0015
20.0015
19.997
19.997
19.997
19.997
19.997
19.9928
19.9928
19.9928
19.9928
19.9928
19.9888
19.9888
19.9888
19.9888
19.9888
19.9851
19.9851
19.9851
19.9851
19.9851
19.9816
19.9816
19.9816
19.9816
19.9816
19.9785
19.9785
19.9785
19.9785
19.9785
19.9757
19.9757
19.9757
19.9757
19.9757
19.9732
19.9732
19.9732
19.9732
19.9732
19.9711
19.9711
19.9711
19.9711
19.9711
19.9693
19.9693
19.9693
19.9693
19.9693
19.9679
19.9679
19.9679
19.9679
19.9679
19.9669
19.9669
19.9669
19.9669
19.9669
19.9663
19.9663
19.9663
19.9663
19.9663
19.9661
19.9661
19.9661
19.9661
19.9661
19.9662
19.9662
19.9662
19.9662
19.9662
19.9667
19.9667
19.9667
19.9667
19.9667
19.9676
19.9676
19.9676
19.9676
19.9676
19.9687
19.9687
19.9687
19.9687
19.9687
19.9701
19.9701
19.9701
19.9701
19.9701
19.9717
19.9717
19.9717
19.9717
19.9717
19.9735
19.9735
19.9735
19.9735
19.9735
19.9754
19.9753
19.9753
19.9753
19.9754
20.0964
20.0964
20.0964
20.0964
20.0964
20.0893
20.0893
20.0893
20.0893
20.0893
20.0823
20.0823
20.0823
20.0823
20.0823
20.0754
20.0754
20.0754
20.0754
20.0754
20.0687
20.0687
20.0687
20.0687
20.0687
20.0621
20.0621
20.0621
20.0621
20.0621
20.0557
20.0557
20.0557
20.0557
20.0557
20.0494
20.0494
20.0494
20.0494
20.0494
20.0432
20.0432
20.0432
20.0432
20.0432
20.0371
20.0372
20.0372
20.0372
20.0371
20.0312
20.0312
20.0312
20.0312
20.0312
20.0255
20.0255
20.0255
20.0255
20.0255
20.0198
20.0198
20.0198
20.0198
20.0198
20.0143
20.0143
20.0143
20.0143
20.0143
20.0089
20.0089
20.0089
20.0089
20.0089
20.0037
20.0037
20.0037
20.0037
20.0037
19.9987
19.9987
19.9987
19.9987
19.9987
19.9938
19.9938
19.9938
19.9938
19.9938
19.9891
19.9891
19.9891
19.9891
19.9891
19.9846
19.9846
19.9846
19.9846
19.9846
19.9803
19.9803
19.9803
19.9803
19.9803
19.9762
19.9762
19.9762
19.9762
19.9762
19.9724
19.9724
19.9724
19.9724
19.9724
19.9688
19.9689
19.9689
19.9689
19.9688
19.9656
19.9656
19.9656
19.9656
19.9656
19.9626
19.9626
19.9626
19.9626
19.9626
19.96
19.96
19.96
19.96
19.96
19.9578
19.9578
19.9578
19.9578
19.9578
19.9559
19.9559
19.9559
19.9559
19.9559
19.9544
19.9544
19.9544
19.9544
19.9544
19.9533
19.9533
19.9533
19.9533
19.9533
19.9527
19.9526
19.9526
19.9526
19.9527
19.9524
19.9524
19.9524
19.9524
19.9524
19.9525
19.9525
19.9525
19.9525
19.9525
19.9531
19.953
19.953
19.953
19.9531
19.9539
19.9539
19.9539
19.9539
19.9539
19.9551
19.9551
19.9551
19.9551
19.9551
19.9566
19.9566
19.9566
19.9566
19.9566
19.9583
19.9583
19.9583
19.9583
19.9583
20.0964
20.0964
20.0964
20.0964
20.0964
20.0892
20.0892
20.0892
20.0892
20.0892
20.0821
20.0821
20.0821
20.0821
20.0821
20.0752
20.0752
20.0752
20.0752
20.0752
20.0684
20.0684
20.0684
20.0684
20.0684
20.0617
20.0617
20.0617
20.0617
20.0617
20.0552
20.0552
20.0552
20.0552
20.0552
20.0487
20.0487
20.0487
20.0487
20.0487
20.0424
20.0424
20.0424
20.0424
20.0424
20.0362
20.0362
20.0362
20.0362
20.0362
20.0301
20.0301
20.0301
20.0301
20.0301
20.0241
20.0241
20.0241
20.0241
20.0241
20.0182
20.0182
20.0182
20.0182
20.0182
20.0125
20.0125
20.0125
20.0125
20.0125
20.0068
20.0068
20.0068
20.0068
20.0068
20.0012
20.0012
20.0012
20.0012
20.0012
19.9957
19.9957
19.9957
19.9957
19.9957
19.9904
19.9904
19.9904
19.9904
19.9904
19.9851
19.9851
19.9851
19.9851
19.9851
19.98
19.98
19.98
19.98
19.98
19.9751
19.9751
19.9751
19.9751
19.9751
19.9703
19.9703
19.9703
19.9703
19.9703
19.9656
19.9656
19.9656
19.9656
19.9656
19.9612
19.9612
19.9612
19.9612
19.9612
19.9569
19.957
19.957
19.957
19.9569
19.953
19.953
19.953
19.953
19.953
19.9492
19.9493
19.9493
19.9493
19.9492
19.9458
19.9458
19.9458
19.9458
19.9458
19.9428
19.9428
19.9428
19.9428
19.9428
19.9401
19.9401
19.9401
19.9401
19.9401
19.9378
19.9378
19.9378
19.9378
19.9378
19.9359
19.9359
19.9359
19.9359
19.9359
19.9345
19.9344
19.9344
19.9344
19.9345
19.9335
19.9335
19.9335
19.9335
19.9335
19.933
19.933
19.933
19.933
19.933
19.933
19.9329
19.9329
19.9329
19.933
19.9334
19.9333
19.9333
19.9333
19.9334
19.9343
19.9342
19.9342
19.9342
19.9343
19.9355
19.9354
19.9354
19.9354
19.9355
20.0963
20.0963
20.0963
20.0963
20.0963
20.0891
20.0891
20.0891
20.0891
20.0891
20.0819
20.0819
20.0819
20.0819
20.0819
20.0749
20.0749
20.0749
20.0749
20.0749
20.0681
20.0681
20.0681
20.0681
20.0681
20.0613
20.0613
20.0613
20.0613
20.0613
20.0547
20.0547
20.0547
20.0547
20.0547
20.0481
20.0481
20.0481
20.0481
20.0481
20.0417
20.0417
20.0417
20.0417
20.0417
20.0353
20.0353
20.0353
20.0353
20.0353
20.029
20.029
20.029
20.029
20.029
20.0228
20.0228
20.0228
20.0228
20.0228
20.0167
20.0167
20.0167
20.0167
20.0167
20.0106
20.0106
20.0106
20.0106
20.0106
20.0046
20.0046
20.0046
20.0046
20.0046
19.9986
19.9986
19.9986
19.9986
19.9986
19.9927
19.9927
19.9927
19.9927
19.9927
19.9868
19.9868
19.9868
19.9868
19.9868
19.981
19.981
19.981
19.981
19.981
19.9752
19.9752
19.9752
19.9752
19.9752
19.9695
19.9695
19.9695
19.9695
19.9695
19.9639
19.9639
19.9639
19.9639
19.9639
19.9583
19.9583
19.9583
19.9583
19.9583
19.9528
19.9528
19.9528
19.9528
19.9528
19.9474
19.9474
19.9474
19.9474
19.9474
19.9421
19.9421
19.9421
19.9421
19.9421
19.937
19.937
19.937
19.937
19.937
19.9321
19.9321
19.9321
19.9321
19.9321
19.9274
19.9274
19.9274
19.9274
19.9274
19.923
19.923
19.923
19.923
19.923
19.919
19.919
19.919
19.919
19.919
19.9154
19.9154
19.9154
19.9154
19.9154
19.9122
19.9122
19.9122
19.9122
19.9122
19.9096
19.9096
19.9096
19.9096
19.9096
19.9076
19.9077
19.9077
19.9077
19.9076
19.9064
19.9064
19.9064
19.9064
19.9064
19.9059
19.9059
19.906
19.9059
19.9059
19.9062
19.9064
19.9064
19.9064
19.9062
19.9075
19.9077
19.9077
19.9076
19.9075
20.0963
20.0963
20.0963
20.0963
20.0963
20.089
20.089
20.089
20.089
20.089
20.0818
20.0818
20.0818
20.0818
20.0818
20.0747
20.0747
20.0747
20.0747
20.0747
20.0678
20.0678
20.0678
20.0678
20.0678
20.0609
20.0609
20.0609
20.0609
20.0609
20.0542
20.0542
20.0542
20.0542
20.0542
20.0475
20.0475
20.0475
20.0475
20.0475
20.0409
20.0409
20.0409
20.0409
20.0409
20.0344
20.0344
20.0344
20.0344
20.0344
20.0279
20.0279
20.0279
20.0279
20.0279
20.0215
20.0215
20.0215
20.0215
20.0215
20.0151
20.0151
20.0151
20.0151
20.0151
20.0088
20.0088
20.0088
20.0088
20.0088
20.0024
20.0024
20.0024
20.0024
20.0024
19.9961
19.9961
19.9961
19.9961
19.9961
19.9897
19.9897
19.9897
19.9897
19.9897
19.9833
19.9833
19.9833
19.9833
19.9833
19.9769
19.9769
19.9769
19.9769
19.9769
19.9704
19.9704
19.9704
19.9704
19.9704
19.9638
19.9638
19.9638
19.9638
19.9638
19.9572
19.9572
19.9572
19.9572
19.9572
19.9505
19.9506
19.9506
19.9506
19.9505
19.9438
19.9438
19.9438
19.9438
19.9438
19.937
19.937
19.937
19.937
19.937
19.9302
19.9302
19.9302
19.9302
19.9302
19.9233
19.9234
19.9234
19.9234
19.9233
19.9165
19.9165
19.9165
19.9165
19.9165
19.9097
19.9098
19.9098
19.9098
19.9097
19.9031
19.9031
19.9031
19.9031
19.9031
19.8966
19.8966
19.8966
19.8966
19.8966
19.8904
19.8904
19.8904
19.8904
19.8904
19.8846
19.8846
19.8845
19.8846
19.8846
19.8792
19.8791
19.8791
19.8791
19.8792
19.8744
19.8742
19.8742
19.8742
19.8744
19.8702
19.8699
19.8699
19.8699
19.8702
19.8667
19.8663
19.8663
19.8663
19.8667
19.8642
19.8636
19.8635
19.8636
19.8642
19.8629
19.8621
19.8621
19.8621
19.8629
20.0963
20.0963
20.0963
20.0963
20.0963
20.0889
20.0889
20.0889
20.0889
20.0889
20.0816
20.0816
20.0816
20.0816
20.0816
20.0745
20.0745
20.0745
20.0745
20.0745
20.0675
20.0675
20.0675
20.0675
20.0675
20.0606
20.0605
20.0605
20.0605
20.0606
20.0537
20.0537
20.0537
20.0537
20.0537
20.0469
20.0469
20.0469
20.0469
20.0469
20.0402
20.0402
20.0402
20.0402
20.0402
20.0336
20.0336
20.0336
20.0336
20.0336
20.0269
20.0269
20.0269
20.0269
20.0269
20.0203
20.0203
20.0203
20.0203
20.0203
20.0137
20.0137
20.0137
20.0137
20.0137
20.0071
20.0071
20.0071
20.0071
20.0071
20.0004
20.0004
20.0004
20.0004
20.0004
19.9936
19.9936
19.9936
19.9936
19.9936
19.9868
19.9868
19.9868
19.9868
19.9868
19.9799
19.9799
19.9799
19.9799
19.9799
19.9728
19.9728
19.9728
19.9728
19.9728
19.9656
19.9656
19.9656
19.9656
19.9656
19.9582
19.9582
19.9582
19.9582
19.9582
19.9505
19.9505
19.9505
19.9505
19.9505
19.9427
19.9427
19.9427
19.9427
19.9427
19.9346
19.9346
19.9346
19.9346
19.9346
19.9262
19.9262
19.9262
19.9262
19.9262
19.9175
19.9175
19.9175
19.9175
19.9175
19.9085
19.9086
19.9086
19.9086
19.9085
19.8993
19.8993
19.8993
19.8993
19.8993
19.8898
19.8898
19.8898
19.8898
19.8898
19.8801
19.8801
19.8801
19.8801
19.8801
19.8702
19.8703
19.8703
19.8703
19.8702
19.8604
19.8605
19.8605
19.8605
19.8604
19.8507
19.8509
19.8509
19.8509
19.8507
19.8415
19.8417
19.8417
19.8417
19.8415
19.8331
19.8335
19.8335
19.8335
19.8331
19.8261
19.8266
19.8267
19.8266
19.8261
19.821
19.8218
19.8218
19.8218
19.821
19.8185
19.8195
19.8196
19.8195
19.8185
19.8193
19.8205
19.8206
19.8205
19.8193
20.0963
20.0963
20.0963
20.0963
20.0963
20.0888
20.0888
20.0888
20.0888
20.0888
20.0815
20.0815
20.0815
20.0815
20.0815
20.0743
20.0743
20.0743
20.0743
20.0743
20.0672
20.0672
20.0672
20.0672
20.0672
20.0602
20.0602
20.0602
20.0602
20.0602
20.0533
20.0533
20.0533
20.0533
20.0533
20.0465
20.0465
20.0465
20.0465
20.0465
20.0396
20.0396
20.0396
20.0396
20.0396
20.0329
20.0329
20.0329
20.0329
20.0329
20.0261
20.0261
20.0261
20.0261
20.0261
20.0193
20.0193
20.0193
20.0193
20.0193
20.0124
20.0124
20.0124
20.0124
20.0124
20.0056
20.0055
20.0055
20.0055
20.0056
19.9986
19.9986
19.9986
19.9986
19.9986
19.9915
19.9915
19.9915
19.9915
19.9915
19.9842
19.9842
19.9842
19.9842
19.9842
19.9768
19.9767
19.9767
19.9767
19.9768
19.9691
19.9691
19.9691
19.9691
19.9691
19.9611
19.9611
19.9611
19.9611
19.9611
19.9528
19.9528
19.9528
19.9528
19.9528
19.9441
19.9441
19.9441
19.9441
19.9441
19.935
19.935
19.935
19.935
19.935
19.9254
19.9254
19.9254
19.9254
19.9254
19.9153
19.9153
19.9153
19.9153
19.9153
19.9045
19.9045
19.9045
19.9045
19.9045
19.893
19.8931
19.8931
19.8931
19.893
19.8808
19.8809
19.8809
19.8809
19.8808
19.8679
19.8679
19.8679
19.8679
19.8679
19.8541
19.8542
19.8542
19.8542
19.8541
19.8395
19.8396
19.8396
19.8396
19.8395
19.8242
19.8243
19.8243
19.8243
19.8242
19.8082
19.8082
19.8081
19.8082
19.8082
19.7914
19.7912
19.7912
19.7913
19.7914
19.7739
19.7734
19.7734
19.7734
19.7739
19.7554
19.7545
19.7544
19.7545
19.7554
19.7358
19.7343
19.7342
19.7343
19.7358
19.716
19.7139
19.7138
19.7139
19.716
19.6993
19.6965
19.6966
19.6965
19.6993
20.0963
20.0963
20.0963
20.0963
20.0963
20.0888
20.0888
20.0888
20.0888
20.0888
20.0814
20.0814
20.0814
20.0814
20.0814
20.0742
20.0742
20.0742
20.0742
20.0742
20.067
20.067
20.067
20.067
20.067
20.06
20.06
20.06
20.06
20.06
20.053
20.053
20.053
20.053
20.053
20.0461
20.0461
20.0461
20.0461
20.0461
20.0392
20.0392
20.0392
20.0392
20.0392
20.0323
20.0323
20.0323
20.0323
20.0323
20.0254
20.0254
20.0254
20.0254
20.0254
20.0184
20.0184
20.0184
20.0184
20.0184
20.0114
20.0114
20.0114
20.0114
20.0114
20.0043
20.0043
20.0043
20.0043
20.0043
19.9971
19.9971
19.9971
19.9971
19.9971
19.9896
19.9896
19.9896
19.9896
19.9896
19.982
19.982
19.982
19.982
19.982
19.9741
19.9741
19.9741
19.9741
19.9741
19.9659
19.9659
19.9659
19.9659
19.9659
19.9572
19.9572
19.9572
19.9572
19.9572
19.9481
19.9481
19.9481
19.9481
19.9481
19.9385
19.9384
19.9384
19.9384
19.9385
19.9281
19.9281
19.9281
19.9281
19.9281
19.917
19.917
19.917
19.917
19.917
19.905
19.905
19.905
19.905
19.905
19.8919
19.8919
19.8919
19.8919
19.8919
19.8777
19.8777
19.8777
19.8777
19.8777
19.862
19.8621
19.8621
19.8621
19.862
19.8448
19.8449
19.8449
19.8449
19.8448
19.8259
19.8261
19.8261
19.8261
19.8259
19.8052
19.8054
19.8054
19.8054
19.8052
19.7825
19.7828
19.7828
19.7828
19.7825
19.7581
19.7585
19.7585
19.7585
19.7581
19.7323
19.733
19.733
19.733
19.7323
19.7062
19.7074
19.7074
19.7074
19.7062
19.6817
19.6835
19.6836
19.6835
19.6817
19.6612
19.6641
19.6641
19.6641
19.6612
19.6443
19.6476
19.6476
19.6476
19.6443
19.6395
19.6431
19.6431
19.6431
19.6395
20.0962
20.0962
20.0962
20.0962
20.0962
20.0887
20.0887
20.0887
20.0887
20.0887
20.0813
20.0813
20.0813
20.0813
20.0813
20.074
20.074
20.074
20.074
20.074
20.0669
20.0669
20.0669
20.0669
20.0669
20.0598
20.0598
20.0598
20.0598
20.0598
20.0528
20.0528
20.0528
20.0528
20.0528
20.0458
20.0458
20.0458
20.0458
20.0458
20.0388
20.0388
20.0388
20.0388
20.0388
20.0319
20.0319
20.0319
20.0319
20.0319
20.0249
20.0249
20.0249
20.0249
20.0249
20.0178
20.0178
20.0178
20.0178
20.0178
20.0107
20.0107
20.0107
20.0107
20.0107
20.0034
20.0034
20.0034
20.0034
20.0034
19.996
19.996
19.996
19.996
19.996
19.9884
19.9883
19.9883
19.9883
19.9884
19.9804
19.9804
19.9804
19.9804
19.9804
19.9722
19.9722
19.9722
19.9722
19.9722
19.9635
19.9635
19.9635
19.9635
19.9635
19.9543
19.9543
19.9543
19.9543
19.9543
19.9446
19.9445
19.9445
19.9445
19.9446
19.934
19.934
19.934
19.934
19.934
19.9227
19.9226
19.9226
19.9226
19.9227
19.9102
19.9102
19.9102
19.9102
19.9102
19.8965
19.8964
19.8964
19.8964
19.8965
19.8812
19.8812
19.8812
19.8812
19.8812
19.8641
19.8641
19.8641
19.8641
19.8641
19.8448
19.8448
19.8448
19.8448
19.8448
19.8229
19.8229
19.8229
19.8229
19.8229
19.7977
19.7978
19.7978
19.7978
19.7977
19.7689
19.769
19.769
19.769
19.7689
19.7355
19.7357
19.7357
19.7357
19.7355
19.6969
19.697
19.697
19.697
19.6969
19.6517
19.6517
19.6517
19.6517
19.6517
19.5979
19.5974
19.5973
19.5974
19.5979
19.5315
19.53
19.5299
19.53
19.5315
19.4433
19.4404
19.4402
19.4404
19.4433
19.3314
19.3279
19.3277
19.3279
19.3314
19.1903
19.1847
19.1848
19.1847
19.1903
20.0962
20.0962
20.0962
20.0962
20.0962
20.0887
20.0887
20.0887
20.0887
20.0887
20.0813
20.0813
20.0813
20.0813
20.0813
20.074
20.074
20.074
20.074
20.074
20.0668
20.0668
20.0668
20.0668
20.0668
20.0597
20.0597
20.0597
20.0597
20.0597
20.0527
20.0527
20.0527
20.0527
20.0527
20.0457
20.0457
20.0457
20.0457
20.0457
20.0387
20.0387
20.0387
20.0387
20.0387
20.0317
20.0317
20.0317
20.0317
20.0317
20.0247
20.0247
20.0247
20.0247
20.0247
20.0176
20.0176
20.0176
20.0176
20.0176
20.0104
20.0104
20.0104
20.0104
20.0104
20.003
20.003
20.003
20.003
20.003
19.9955
19.9955
19.9955
19.9955
19.9955
19.9877
19.9877
19.9877
19.9877
19.9877
19.9797
19.9796
19.9796
19.9796
19.9797
19.9712
19.9712
19.9712
19.9712
19.9712
19.9623
19.9623
19.9623
19.9623
19.9623
19.9528
19.9528
19.9528
19.9528
19.9528
19.9426
19.9426
19.9426
19.9426
19.9426
19.9316
19.9315
19.9315
19.9315
19.9316
19.9195
19.9194
19.9194
19.9194
19.9195
19.9061
19.906
19.906
19.906
19.9061
19.8912
19.891
19.891
19.891
19.8912
19.8742
19.874
19.874
19.874
19.8742
19.8548
19.8546
19.8546
19.8546
19.8548
19.8323
19.832
19.832
19.832
19.8323
19.8059
19.8056
19.8056
19.8056
19.8059
19.7746
19.7741
19.7742
19.7741
19.7746
19.7368
19.7363
19.7364
19.7363
19.7368
19.6907
19.6903
19.6904
19.6903
19.6907
19.6341
19.634
19.6341
19.634
19.6341
19.5646
19.565
19.5651
19.565
19.5646
19.4817
19.4834
19.4836
19.4834
19.4817
19.3874
19.3907
19.3909
19.3907
19.3874
19.2986
19.3055
19.3057
19.3055
19.2986
19.1854
19.1913
19.1912
19.1913
19.1854
19.1408
19.1548
19.1548
19.1548
19.1408
20.0962
20.0962
20.0962
20.0962
20.0962
20.0887
20.0887
20.0887
20.0887
20.0887
20.0813
20.0813
20.0813
20.0813
20.0813
20.074
20.074
20.074
20.074
20.074
20.0669
20.0669
20.0669
20.0669
20.0669
20.0598
20.0598
20.0598
20.0598
20.0598
20.0528
20.0528
20.0528
20.0528
20.0528
20.0458
20.0458
20.0458
20.0458
20.0458
20.0389
20.0389
20.0389
20.0389
20.0389
20.0319
20.0319
20.0319
20.0319
20.0319
20.0249
20.0249
20.0249
20.0249
20.0249
20.0179
20.0179
20.0179
20.0179
20.0179
20.0108
20.0108
20.0108
20.0108
20.0108
20.0035
20.0035
20.0035
20.0035
20.0035
19.9961
19.9961
19.9961
19.9961
19.9961
19.9884
19.9884
19.9884
19.9884
19.9884
19.9805
19.9805
19.9805
19.9805
19.9805
19.9722
19.9722
19.9722
19.9722
19.9722
19.9635
19.9634
19.9634
19.9634
19.9635
19.9542
19.9541
19.9541
19.9541
19.9542
19.9442
19.9442
19.9442
19.9442
19.9442
19.9334
19.9334
19.9334
19.9334
19.9334
19.9216
19.9216
19.9216
19.9216
19.9216
19.9085
19.9085
19.9085
19.9085
19.9085
19.8939
19.8938
19.8938
19.8938
19.8939
19.8772
19.8772
19.8772
19.8772
19.8772
19.858
19.858
19.858
19.858
19.858
19.8356
19.8355
19.8355
19.8355
19.8356
19.8088
19.8087
19.8087
19.8087
19.8088
19.7761
19.7761
19.7761
19.7761
19.7761
19.7354
19.7353
19.7354
19.7353
19.7354
19.6832
19.6831
19.6831
19.6831
19.6832
19.6138
19.6135
19.6136
19.6135
19.6138
19.5174
19.5169
19.517
19.5169
19.5174
19.3741
19.3731
19.3733
19.3731
19.3741
19.1472
19.1464
19.1464
19.1464
19.1472
18.7314
18.7307
18.7304
18.7307
18.7315
18.0209
18.0234
18.0222
18.0234
18.0209
16.4761
16.4683
16.4658
16.4683
16.4761
20.0107
20.0107
20.0107
20.0107
20.0107
20.0156
20.0156
20.0156
20.0156