/*--------------------------------*- C++ -*----------------------------------*\
  =========                 |
  \\      /  F ield         | OpenFOAM: The Open Source CFD Toolbox
   \\    /   O peration     | Website:  https://openfoam.org
    \\  /    A nd           | Version:  9
     \\/     M anipulation  |
\*---------------------------------------------------------------------------*/
FoamFile
{
    format      ascii;
    class       surfaceScalarField;
    location    "0.4";
    object      phi;
}
// * * * * * * * * * * * * * * * * * * * * * * * * * * * * * * * * * * * * * //

dimensions      [0 3 -1 0 0 0 0];

internalField   nonuniform List<scalar> 
12376
(
3.4066e-10
0.000288782
1.06269e-07
3.91651e-12
0.000288782
1.06671e-07
5.2605e-12
0.000288781
1.06696e-07
-3.35002e-10
0.000288782
1.06866e-07
0.000288782
1.06603e-07
-3.40704e-10
0.000288651
1.31636e-07
-1.84864e-11
0.00028865
1.31106e-07
2.76119e-11
0.00028865
1.31056e-07
3.48661e-10
0.00028865
1.31244e-07
0.000288651
1.31854e-07
-2.24599e-10
0.000288436
2.14757e-07
-1.27933e-11
0.000288435
2.14657e-07
1.84786e-11
0.000288435
2.14659e-07
2.31172e-10
0.000288435
2.14696e-07
0.000288436
2.14809e-07
-1.00088e-10
0.000288091
3.44773e-07
-3.38907e-11
0.00028809
3.44905e-07
3.38428e-11
0.00028809
3.44852e-07
1.04706e-10
0.00028809
3.4487e-07
0.000288091
3.44709e-07
-6.11102e-11
0.000287593
4.98523e-07
-6.25788e-11
0.000287592
4.98569e-07
6.19085e-11
0.000287591
4.98425e-07
6.4007e-11
0.000287592
4.98531e-07
0.000287593
4.98458e-07
-3.26755e-11
0.000286929
6.64419e-07
-7.19141e-11
0.000286927
6.64465e-07
6.99579e-11
0.000286927
6.64284e-07
3.54957e-11
0.000286927
6.64461e-07
0.000286929
6.64407e-07
-6.76178e-12
0.000286088
8.4086e-07
-7.77387e-11
0.000286086
8.40958e-07
7.60172e-11
0.000286086
8.40746e-07
9.78849e-12
0.000286086
8.40973e-07
0.000286088
8.40876e-07
1.61818e-11
0.000285058
1.02955e-06
-8.26793e-11
0.000285057
1.02968e-06
8.21754e-11
0.000285056
1.02942e-06
-1.31845e-11
0.000285057
1.02969e-06
0.000285058
1.02955e-06
4.14153e-11
0.000283825
1.23358e-06
-8.60782e-11
0.000283823
1.23375e-06
8.76172e-11
0.000283823
1.23344e-06
-3.80237e-11
0.000283823
1.23375e-06
0.000283824
1.23357e-06
7.28768e-11
0.000282369
1.45542e-06
-8.64021e-11
0.000282367
1.45564e-06
9.13914e-11
0.000282367
1.45528e-06
-6.88761e-11
0.000282367
1.45564e-06
0.000282369
1.45541e-06
1.12e-10
0.000280671
1.69765e-06
-8.824e-11
0.00028067
1.69793e-06
9.34208e-11
0.00028067
1.69751e-06
-1.08448e-10
0.00028067
1.69793e-06
0.000280671
1.69764e-06
1.60894e-10
0.000278709
1.96254e-06
-9.15995e-11
0.000278707
1.96288e-06
9.75229e-11
0.000278707
1.96238e-06
-1.57638e-10
0.000278707
1.96287e-06
0.000278708
1.96251e-06
2.20915e-10
0.000276458
2.25025e-06
-9.3642e-11
0.000276457
2.25067e-06
1.00029e-10
0.000276457
2.2501e-06
-2.18126e-10
0.000276457
2.25067e-06
0.000276458
2.25024e-06
2.933e-10
0.000273894
2.56389e-06
-9.42449e-11
0.000273893
2.56441e-06
1.01269e-10
0.000273893
2.56376e-06
-2.90752e-10
0.000273893
2.56442e-06
0.000273894
2.56391e-06
3.78027e-10
0.000270993
2.90077e-06
-9.34186e-11
0.000270992
2.90139e-06
1.00717e-10
0.000270992
2.90064e-06
-3.75524e-10
0.000270992
2.9014e-06
0.000270993
2.90077e-06
4.74968e-10
0.00026773
3.26249e-06
-9.11374e-11
0.000267729
3.26323e-06
9.85741e-11
0.000267729
3.26236e-06
-4.72326e-10
0.000267729
3.26321e-06
0.00026773
3.26245e-06
5.84047e-10
0.000264082
3.64766e-06
-8.71021e-11
0.000264081
3.64855e-06
9.52418e-11
0.000264082
3.64757e-06
-5.80775e-10
0.000264081
3.64853e-06
0.000264082
3.64763e-06
7.04541e-10
0.000260027
4.05376e-06
-8.12786e-11
0.000260027
4.05483e-06
9.07131e-11
0.000260028
4.05374e-06
-7.00041e-10
0.000260027
4.05482e-06
0.000260027
4.05376e-06
8.35586e-10
0.000255546
4.48015e-06
-7.38643e-11
0.000255547
4.48141e-06
8.47653e-11
0.000255547
4.4802e-06
-8.29553e-10
0.000255547
4.48142e-06
0.000255546
4.48016e-06
9.75437e-10
0.000250624
4.92098e-06
-6.49831e-11
0.000250625
4.92246e-06
7.72056e-11
0.000250626
4.92113e-06
-9.67883e-10
0.000250625
4.92247e-06
0.000250624
4.921e-06
1.12294e-09
0.000245248
5.37466e-06
-5.48182e-11
0.00024525
5.37639e-06
6.80777e-11
0.000245251
5.37495e-06
-1.11409e-09
0.00024525
5.37641e-06
0.000245248
5.3747e-06
1.27611e-09
0.000239411
5.8359e-06
-4.36447e-11
0.000239414
5.8379e-06
5.72632e-11
0.000239415
5.83634e-06
-1.26638e-09
0.000239414
5.83792e-06
0.000239411
5.83593e-06
1.43263e-09
0.00023311
6.29931e-06
-3.15337e-11
0.000233113
6.3016e-06
4.49359e-11
0.000233115
6.29992e-06
-1.42258e-09
0.000233113
6.30161e-06
0.00023311
6.29932e-06
1.59022e-09
0.000226349
6.75968e-06
-1.85087e-11
0.000226353
6.76227e-06
3.14052e-11
0.000226354
6.76047e-06
-1.58025e-09
0.000226353
6.76225e-06
0.000226349
6.75965e-06
1.74662e-09
0.000219136
7.2113e-06
-4.34167e-12
0.00021914
7.21422e-06
1.72807e-11
0.000219142
7.21231e-06
-1.73677e-09
0.00021914
7.21419e-06
0.000219136
7.21125e-06
1.89948e-09
0.000211486
7.64808e-06
1.08674e-11
0.000211491
7.65135e-06
2.83396e-12
0.000211492
7.64936e-06
-1.8895e-09
0.000211491
7.65134e-06
0.000211486
7.64806e-06
2.04668e-09
0.000203419
8.06484e-06
2.68877e-11
0.000203424
8.06846e-06
-1.18113e-11
0.000203426
8.0664e-06
-2.03624e-09
0.000203424
8.06848e-06
0.000203419
8.06486e-06
2.18596e-09
0.000194961
8.45613e-06
4.3388e-11
0.000194966
8.4601e-06
-2.66495e-11
0.000194968
8.45798e-06
-2.175e-09
0.000194966
8.46013e-06
0.000194961
8.45616e-06
2.31499e-09
0.000186142
8.81643e-06
5.95993e-11
0.000186148
8.82074e-06
-4.19078e-11
0.00018615
8.81856e-06
-2.30384e-09
0.000186148
8.82076e-06
0.000186142
8.81647e-06
2.432e-09
0.000176997
9.14265e-06
7.50685e-11
0.000177003
9.14727e-06
-5.7406e-11
0.000177005
9.14504e-06
-2.42141e-09
0.000177003
9.14728e-06
0.000176997
9.14266e-06
2.53519e-09
0.000167564
9.4309e-06
8.92753e-11
0.00016757
9.43581e-06
-7.2908e-11
0.000167571
9.43354e-06
-2.52605e-09
0.000167569
9.43581e-06
0.000167564
9.4309e-06
2.62358e-09
0.000157882
9.67903e-06
1.0225e-10
0.000157888
9.6842e-06
-8.76297e-11
0.00015789
9.6819e-06
-2.61657e-09
0.000157888
9.6842e-06
0.000157882
9.67903e-06
2.69704e-09
0.000147993
9.88628e-06
1.13904e-10
0.000147999
9.89168e-06
-1.00971e-10
0.000148
9.88937e-06
-2.6923e-09
0.000147999
9.89169e-06
0.000147993
9.8863e-06
2.75603e-09
0.000137938
1.00521e-05
1.24312e-10
0.000137944
1.00577e-05
-1.12093e-10
0.000137945
1.00554e-05
-2.75278e-09
0.000137944
1.00577e-05
0.000137938
1.00521e-05
2.8021e-09
0.000127757
1.01779e-05
1.32809e-10
0.000127763
1.01837e-05
-1.20845e-10
0.000127764
1.01813e-05
-2.79813e-09
0.000127763
1.01837e-05
0.000127757
1.01779e-05
2.83812e-09
0.000117489
1.02659e-05
1.3863e-10
0.000117494
1.02717e-05
-1.27636e-10
0.000117495
1.02695e-05
-2.82907e-09
0.000117494
1.02718e-05
0.000117489
1.02659e-05
2.86672e-09
0.000107167
1.03186e-05
1.41731e-10
0.000107172
1.03246e-05
-1.34595e-10
0.000107173
1.03223e-05
-2.84562e-09
0.000107172
1.03246e-05
0.000107167
1.03186e-05
2.88337e-09
9.68237e-05
1.03407e-05
1.4503e-10
9.68275e-05
1.0347e-05
-1.4426e-10
9.68286e-05
1.03447e-05
-2.84228e-09
9.68275e-05
1.0347e-05
9.68237e-05
1.03407e-05
2.87388e-09
1.03397e-05
8.64811e-05
1.53952e-10
1.03461e-05
8.6484e-05
-1.55542e-10
1.03439e-05
8.64851e-05
-2.80828e-09
1.03461e-05
8.64841e-05
1.03396e-05
8.64812e-05
3.31297e-10
0.000688216
2.59567e-07
-2.18256e-12
0.000688215
2.5936e-07
6.2322e-12
0.000688214
2.59404e-07
-3.28026e-10
0.000688215
2.59653e-07
0.000688216
2.60064e-07
-5.11203e-10
0.000687981
3.67112e-07
-8.50792e-12
0.000687979
3.66707e-07
1.3153e-11
0.000687978
3.66757e-07
5.15973e-10
0.000687979
3.66937e-07
0.000687981
3.67479e-07
-3.98836e-10
0.000687578
6.18637e-07
9.43865e-12
0.000687575
6.18445e-07
-6.1445e-12
0.000687574
6.18606e-07
4.03032e-10
0.000687575
6.18525e-07
0.000687577
6.18755e-07
-3.39521e-10
0.000686931
9.91959e-07
-9.42345e-12
0.000686928
9.91777e-07
9.92179e-12
0.000686927
9.91965e-07
3.42809e-10
0.000686927
9.91725e-07
0.00068693
9.9187e-07
-4.13552e-10
0.00068599
1.43987e-06
-2.34607e-11
0.000685986
1.43942e-06
2.16557e-11
0.000685986
1.43961e-06
4.15629e-10
0.000685986
1.43935e-06
0.000685989
1.43976e-06
-4.94219e-10
0.000684723
1.93154e-06
-2.53057e-11
0.000684719
1.93091e-06
2.29409e-11
0.000684719
1.93117e-06
4.96037e-10
0.000684719
1.93089e-06
0.000684723
1.93151e-06
-5.78971e-10
0.000683105
2.45931e-06
-2.41866e-11
0.000683101
2.45856e-06
2.26805e-11
0.000683101
2.4589e-06
5.80885e-10
0.000683101
2.45858e-06
0.000683105
2.45934e-06
-6.75014e-10
0.000681109
3.02625e-06
-2.20202e-11
0.000681105
3.02536e-06
2.24004e-11
0.000681104
3.02575e-06
6.77251e-10
0.000681105
3.02538e-06
0.000681109
3.02628e-06
-7.78221e-10
0.000678703
3.64079e-06
-1.86465e-11
0.000678698
3.63974e-06
2.08182e-11
0.000678698
3.64018e-06
7.80907e-10
0.000678698
3.63974e-06
0.000678702
3.64079e-06
-8.85505e-10
0.000675849
4.31021e-06
-1.38291e-11
0.000675844
4.30899e-06
1.76967e-11
0.000675843
4.30948e-06
8.88294e-10
0.000675844
4.30899e-06
0.000675848
4.3102e-06
-9.96069e-10
0.000672505
5.0427e-06
-7.22687e-12
0.000672499
5.04131e-06
1.25687e-11
0.000672499
5.04185e-06
9.98645e-10
0.000672499
5.0413e-06
0.000672504
5.04268e-06
-1.10908e-09
0.000668622
5.84599e-06
1.06167e-12
0.000668617
5.8444e-06
4.64351e-12
0.000668616
5.845e-06
1.11118e-09
0.000668617
5.84437e-06
0.000668622
5.84595e-06
-1.22239e-09
0.000664152
6.72169e-06
1.13978e-11
0.000664146
6.71991e-06
-5.49776e-12
0.000664146
6.72055e-06
1.22401e-09
0.000664146
6.71989e-06
0.000664152
6.72166e-06
-1.33617e-09
0.000659037
7.68049e-06
2.42394e-11
0.000659031
7.67851e-06
-1.75899e-11
0.00065903
7.67921e-06
1.3379e-09
0.000659031
7.67852e-06
0.000659037
7.68051e-06
-1.44785e-09
0.000653223
8.71588e-06
3.95472e-11
0.000653217
8.71369e-06
-3.21702e-11
0.000653217
8.71443e-06
1.45032e-09
0.000653217
8.7137e-06
0.000653223
8.71588e-06
-1.55812e-09
0.000646653
9.83453e-06
5.72308e-11
0.000646647
9.83214e-06
-4.92271e-11
0.000646646
9.8329e-06
1.56157e-09
0.000646646
9.83211e-06
0.000646652
9.83447e-06
-1.66565e-09
0.000639268
1.10342e-05
7.73225e-11
0.000639262
1.10316e-05
-6.83763e-11
0.000639262
1.10324e-05
1.67041e-09
0.000639262
1.10315e-05
0.000639268
1.10341e-05
-1.76915e-09
0.000631014
1.23092e-05
9.97282e-11
0.000631008
1.23064e-05
-8.95233e-11
0.000631008
1.23073e-05
1.77554e-09
0.000631008
1.23064e-05
0.000631014
1.23091e-05
-1.86863e-09
0.000621836
1.366e-05
1.2441e-10
0.000621831
1.36571e-05
-1.12828e-10
0.000621831
1.3658e-05
1.87659e-09
0.000621831
1.36571e-05
0.000621836
1.366e-05
-1.96169e-09
0.000611688
1.50713e-05
1.50563e-10
0.000611683
1.50683e-05
-1.38069e-10
0.000611683
1.50692e-05
1.97103e-09
0.000611683
1.50683e-05
0.000611688
1.50713e-05
-2.04838e-09
0.000600524
1.65405e-05
1.78602e-10
0.000600519
1.65374e-05
-1.64799e-10
0.00060052
1.65384e-05
2.05853e-09
0.000600519
1.65375e-05
0.000600524
1.65405e-05
-2.12703e-09
0.000588309
1.80534e-05
2.0734e-10
0.000588305
1.80504e-05
-1.93447e-10
0.000588305
1.80514e-05
2.13791e-09
0.000588305
1.80504e-05
0.000588309
1.80535e-05
-2.19691e-09
0.000575015
1.95957e-05
2.37549e-10
0.000575011
1.95927e-05
-2.22948e-10
0.000575012
1.95937e-05
2.20771e-09
0.000575011
1.95927e-05
0.000575014
1.95957e-05
-2.25677e-09
0.000560624
2.11528e-05
2.67853e-10
0.000560621
2.11499e-05
-2.53769e-10
0.000560622
2.1151e-05
2.2677e-09
0.000560621
2.11499e-05
0.000560623
2.11528e-05
-2.30638e-09
0.000545129
2.27083e-05
2.99551e-10
0.000545127
2.27055e-05
-2.84232e-10
0.000545128
2.27066e-05
2.31682e-09
0.000545127
2.27055e-05
0.000545129
2.27082e-05
-2.34469e-09
0.000528536
2.42434e-05
3.30727e-10
0.000528535
2.42409e-05
-3.14995e-10
0.000528536
2.4242e-05
2.35503e-09
0.000528535
2.42409e-05
0.000528536
2.42434e-05
-2.37147e-09
0.000510861
2.57417e-05
3.60881e-10
0.000510861
2.57394e-05
-3.45759e-10
0.000510862
2.57406e-05
2.38222e-09
0.000510861
2.57394e-05
0.000510861
2.57417e-05
-2.38738e-09
0.000492135
2.71847e-05
3.91393e-10
0.000492135
2.71828e-05
-3.74961e-10
0.000492137
2.7184e-05
2.39752e-09
0.000492135
2.71828e-05
0.000492135
2.71848e-05
-2.39158e-09
0.000472401
2.8553e-05
4.1914e-10
0.000472402
2.85514e-05
-4.03861e-10
0.000472404
2.85528e-05
2.40168e-09
0.000472402
2.85515e-05
0.000472401
2.85531e-05
-2.38605e-09
0.000451712
2.98338e-05
4.46025e-10
0.000451714
2.98326e-05
-4.3051e-10
0.000451716
2.9834e-05
2.39452e-09
0.000451714
2.98326e-05
0.000451712
2.98339e-05
-2.37015e-09
0.000430135
3.10108e-05
4.68994e-10
0.000430137
3.101e-05
-4.56189e-10
0.000430139
3.10114e-05
2.37768e-09
0.000430137
3.101e-05
0.000430134
3.10109e-05
-2.34565e-09
0.000407744
3.20723e-05
4.90777e-10
0.000407746
3.20718e-05
-4.78349e-10
0.000407748
3.20733e-05
2.35093e-09
0.000407746
3.20718e-05
0.000407743
3.20723e-05
-2.31164e-09
0.000384622
3.30104e-05
5.08804e-10
0.000384625
3.30102e-05
-4.98692e-10
0.000384627
3.30117e-05
2.31629e-09
0.000384625
3.30102e-05
0.000384622
3.30104e-05
-2.26955e-09
0.000360859
3.38172e-05
5.26273e-10
0.000360862
3.38173e-05
-5.14893e-10
0.000360865
3.38188e-05
2.27247e-09
0.000360862
3.38173e-05
0.000360859
3.38172e-05
-2.21819e-09
0.000336548
3.44911e-05
5.40393e-10
0.000336552
3.44914e-05
-5.29199e-10
0.000336554
3.44929e-05
2.22052e-09
0.000336552
3.44914e-05
0.000336548
3.44911e-05
-2.15962e-09
0.000311784
3.50325e-05
5.53399e-10
0.000311788
3.5033e-05
-5.38826e-10
0.00031179
3.50345e-05
2.15907e-09
0.000311788
3.5033e-05
0.000311783
3.50325e-05
-2.09283e-09
0.000286662
3.54427e-05
5.62568e-10
0.000286667
3.54432e-05
-5.43021e-10
0.000286669
3.54446e-05
2.08737e-09
0.000286667
3.54432e-05
0.000286661
3.54427e-05
-2.00114e-09
0.000261274
3.57301e-05
5.61801e-10
0.000261281
3.57303e-05
-5.43621e-10
0.000261283
3.57317e-05
1.99374e-09
0.000261281
3.57302e-05
0.000261274
3.573e-05
-1.85151e-09
3.58975e-05
0.000235718
5.51913e-10
3.58974e-05
0.000235727
-5.39234e-10
3.58987e-05
0.000235729
1.85098e-09
3.58972e-05
0.000235728
3.58973e-05
0.000235718
3.68491e-10
0.000880599
4.1522e-07
-9.57312e-12
0.000880599
4.14541e-07
9.51946e-12
0.000880598
4.14466e-07
-3.66959e-10
0.000880598
4.14778e-07
0.000880598
4.15619e-07
-4.4921e-10
0.000880355
6.10885e-07
-1.03113e-11
0.000880354
6.10666e-07
1.2064e-11
0.000880354
6.10731e-07
4.51322e-10
0.000880354
6.10846e-07
0.000880355
6.11176e-07
-2.60232e-10
0.00087993
1.04463e-06
1.15581e-11
0.000879928
1.04449e-06
-9.75591e-12
0.000879928
1.04465e-06
2.63016e-10
0.000879928
1.04453e-06
0.000879929
1.0447e-06
-1.24442e-10
0.000879239
1.68227e-06
-1.0048e-11
0.000879238
1.682e-06
9.80399e-12
0.000879237
1.68219e-06
1.27147e-10
0.000879237
1.68192e-06
0.000879239
1.68215e-06
-1.29779e-10
0.000878224
2.45586e-06
-2.3432e-11
0.000878221
2.45536e-06
2.094e-11
0.000878221
2.4556e-06
1.31262e-10
0.000878221
2.45528e-06
0.000878223
2.45573e-06
-1.26587e-10
0.000876841
3.31443e-06
-2.51755e-11
0.000876839
3.31375e-06
2.28251e-11
0.000876838
3.31407e-06
1.27792e-10
0.000876838
3.31372e-06
0.00087684
3.31438e-06
-1.16343e-10
0.000875058
4.24174e-06
-2.48378e-11
0.000875056
4.24093e-06
2.40668e-11
0.000875056
4.24131e-06
1.17984e-10
0.000875056
4.24094e-06
0.000875058
4.24175e-06
-1.1082e-10
0.000872844
5.24085e-06
-2.44832e-11
0.000872841
5.23989e-06
2.56416e-11
0.000872841
5.24032e-06
1.13111e-10
0.000872841
5.2399e-06
0.000872844
5.24087e-06
-1.0482e-10
0.000870159
6.32555e-06
-2.36291e-11
0.000870157
6.32442e-06
2.60178e-11
0.000870156
6.32488e-06
1.07458e-10
0.000870156
6.32442e-06
0.000870159
6.32555e-06
-9.41763e-11
0.000866961
7.50859e-06
-2.22243e-11
0.000866958
7.50729e-06
2.58445e-11
0.000866958
7.50778e-06
9.66351e-11
0.000866958
7.50728e-06
0.000866961
7.50858e-06
-7.71654e-11
0.000863199
8.80501e-06
-2.16616e-11
0.000863196
8.80352e-06
2.8948e-11
0.000863196
8.80404e-06
7.94577e-11
0.000863196
8.80351e-06
0.000863198
8.80499e-06
-5.22114e-11
0.000858815
1.02295e-05
-2.00035e-11
0.000858812
1.02278e-05
2.70869e-11
0.000858812
1.02284e-05
5.40758e-11
0.000858812
1.02278e-05
0.000858815
1.02295e-05
-1.6845e-11
0.00085375
1.17865e-05
-1.19098e-11
0.000853748
1.17846e-05
2.05655e-11
0.000853748
1.17851e-05
1.83854e-11
0.000853747
1.17846e-05
0.00085375
1.17864e-05
3.03576e-11
0.000847935
1.34963e-05
-9.11347e-13
0.000847932
1.34942e-05
7.69048e-12
0.000847932
1.34948e-05
-2.84195e-11
0.000847932
1.34942e-05
0.000847934
1.34963e-05
9.03005e-11
0.000841301
1.53497e-05
1.01842e-11
0.000841298
1.53474e-05
-2.435e-12
0.000841299
1.5348e-05
-8.71286e-11
0.000841298
1.53474e-05
0.0008413
1.53497e-05
1.63062e-10
0.000833774
1.73607e-05
2.31069e-11
0.000833772
1.73583e-05
-1.46488e-11
0.000833773
1.73588e-05
-1.5851e-10
0.000833772
1.73582e-05
0.000833774
1.73607e-05
2.4918e-10
0.00082528
1.95278e-05
3.7708e-11
0.000825279
1.95252e-05
-2.85894e-11
0.00082528
1.95256e-05
-2.43035e-10
0.000825279
1.95251e-05
0.00082528
1.95278e-05
3.48475e-10
0.000815745
2.18437e-05
5.4297e-11
0.000815745
2.1841e-05
-4.43521e-11
0.000815746
2.18414e-05
-3.40658e-10
0.000815745
2.18409e-05
0.000815745
2.18437e-05
4.59746e-10
0.000805093
2.43121e-05
6.89457e-11
0.000805093
2.43094e-05
-6.31176e-11
0.000805094
2.43097e-05
-4.51569e-10
0.000805093
2.43094e-05
0.000805093
2.43121e-05
5.85252e-10
0.000793255
2.69088e-05
9.33457e-11
0.000793256
2.6906e-05
-7.68088e-11
0.000793257
2.69064e-05
-5.73927e-10
0.000793256
2.6906e-05
0.000793255
2.69088e-05
7.19165e-10
0.000780162
2.96322e-05
1.06357e-10
0.000780164
2.96295e-05
-1.02946e-10
0.000780166
2.96298e-05
-7.10294e-10
0.000780164
2.96295e-05
0.000780162
2.96322e-05
8.66495e-10
0.000765755
3.24598e-05
1.38209e-10
0.000765758
3.24573e-05
-1.15135e-10
0.00076576
3.24575e-05
-8.52938e-10
0.000765758
3.24574e-05
0.000765755
3.24599e-05
1.01636e-09
0.000749982
3.53683e-05
1.48597e-10
0.000749986
3.53661e-05
-1.48633e-10
0.000749988
3.53663e-05
-1.00777e-09
0.000749985
3.53661e-05
0.000749981
3.53683e-05
1.1776e-09
0.000732799
3.83338e-05
1.87515e-10
0.000732804
3.8332e-05
-1.58663e-10
0.000732807
3.83321e-05
-1.16299e-09
0.000732804
3.8332e-05
0.000732799
3.83338e-05
1.33439e-09
0.000714178
4.13281e-05
1.95259e-10
0.000714184
4.13267e-05
-1.97906e-10
0.000714187
4.13268e-05
-1.32803e-09
0.000714184
4.13267e-05
0.000714178
4.1328e-05
1.4952e-09
0.000694102
4.4318e-05
2.16894e-10
0.000694109
4.43172e-05
-2.2423e-10
0.000694112
4.43172e-05
-1.49016e-09
0.000694109
4.43172e-05
0.000694102
4.43179e-05
1.65906e-09
0.000672569
4.7273e-05
2.64397e-10
0.000672577
4.72728e-05
-2.29046e-10
0.000672581
4.72729e-05
-1.6453e-09
0.000672577
4.72728e-05
0.000672569
4.7273e-05
1.80669e-09
0.000649594
5.01583e-05
2.56851e-10
0.000649603
5.01589e-05
-2.78251e-10
0.000649606
5.0159e-05
-1.80493e-09
0.000649602
5.0159e-05
0.000649593
5.01584e-05
1.95894e-09
0.000625209
5.29359e-05
3.129e-10
0.000625218
5.29373e-05
-2.73376e-10
0.000625222
5.29374e-05
-1.94648e-09
0.000625218
5.29373e-05
0.000625209
5.2936e-05
2.08807e-09
0.000599462
5.55785e-05
2.95943e-10
0.000599472
5.55807e-05
-3.27598e-10
0.000599476
5.55808e-05
-2.09004e-09
0.000599472
5.55807e-05
0.000599462
5.55786e-05
2.22073e-09
0.000572419
5.80513e-05
3.56911e-10
0.00057243
5.80542e-05
-3.10104e-10
0.000572433
5.80544e-05
-2.20885e-09
0.00057243
5.80543e-05
0.000572419
5.80513e-05
2.32472e-09
0.000544163
6.03267e-05
3.29797e-10
0.000544173
6.03303e-05
-3.68613e-10
0.000544177
6.03306e-05
-2.32869e-09
0.000544173
6.03303e-05
0.000544162
6.03267e-05
2.43262e-09
0.000514787
6.23832e-05
3.938e-10
0.000514798
6.23876e-05
-3.38648e-10
0.000514801
6.23879e-05
-2.41931e-09
0.000514798
6.23876e-05
0.000514787
6.23833e-05
2.50893e-09
0.000484403
6.41991e-05
3.5551e-10
0.000484413
6.42041e-05
-3.99794e-10
0.000484417
6.42043e-05
-2.51133e-09
0.000484413
6.42041e-05
0.000484403
6.41991e-05
2.59119e-09
0.000453128
6.57632e-05
4.19902e-10
0.000453138
6.57687e-05
-3.6321e-10
0.000453141
6.5769e-05
-2.57105e-09
0.000453138
6.57687e-05
0.000453128
6.57632e-05
2.64882e-09
0.000421089
6.70686e-05
4.32217e-10
0.000421099
6.70745e-05
-3.69175e-10
0.000421102
6.70748e-05
-2.62687e-09
0.000421099
6.70745e-05
0.000421089
6.70686e-05
2.67865e-09
0.00038842
6.81095e-05
3.89397e-10
0.000388429
6.81157e-05
-4.24862e-10
0.000388431
6.81159e-05
-2.67923e-09
0.000388429
6.81156e-05
0.00038842
6.81094e-05
2.69769e-09
0.000355254
6.88937e-05
3.92377e-10
0.000355261
6.89002e-05
-4.29471e-10
0.000355264
6.89004e-05
-2.69937e-09
0.000355261
6.89001e-05
0.000355254
6.88936e-05
2.69233e-09
6.94241e-05
0.000321724
4.46897e-10
6.94309e-05
0.00032173
-3.74807e-10
6.94311e-05
0.000321732
-2.67075e-09
6.94307e-05
0.00032173
6.94238e-05
0.000321724
3.56333e-10
0.000951223
5.60492e-07
-1.35175e-11
0.000951223
5.59409e-07
1.15256e-11
0.000951222
5.59179e-07
-3.55855e-10
0.000951222
5.59536e-07
0.000951222
5.60704e-07
-4.22596e-10
0.000951001
8.33529e-07
-1.55602e-11
0.000951
8.33526e-07
1.55959e-11
0.000950999
8.33579e-07
4.23411e-10
0.000950999
8.336e-07
0.000951
8.33652e-07
-2.27086e-10
0.000950611
1.43473e-06
4.57329e-12
0.000950609
1.43476e-06
-3.86132e-12
0.000950609
1.4349e-06
2.29111e-10
0.000950609
1.43473e-06
0.00095061
1.4347e-06
-9.24315e-11
0.000949973
2.31972e-06
-1.68544e-11
0.000949972
2.31948e-06
1.56524e-11
0.000949971
2.31965e-06
9.44799e-11
0.000949971
2.31938e-06
0.000949973
2.31957e-06
-1.08995e-10
0.000949027
3.40216e-06
-4.70538e-11
0.000949025
3.4017e-06
4.38476e-11
0.000949025
3.40192e-06
1.10701e-10
0.000949025
3.40161e-06
0.000949027
3.40202e-06
-1.17116e-10
0.000947729
4.61254e-06
-5.67523e-11
0.000947727
4.61191e-06
5.43182e-11
0.000947727
4.6122e-06
1.18794e-10
0.000947727
4.61187e-06
0.000947729
4.61247e-06
-1.18015e-10
0.000946045
5.92597e-06
-6.35848e-11
0.000946043
5.92518e-06
6.2864e-11
0.000946042
5.92552e-06
1.19972e-10
0.000946042
5.92517e-06
0.000946044
5.92596e-06
-1.25603e-10
0.000943941
7.34489e-06
-6.97621e-11
0.000943938
7.34392e-06
7.08583e-11
0.000943938
7.34428e-06
1.27873e-10
0.000943938
7.34392e-06
0.000943941
7.34488e-06
-1.35078e-10
0.000941379
8.88795e-06
-7.51016e-11
0.000941376
8.88679e-06
7.72937e-11
0.000941376
8.88718e-06
1.3727e-10
0.000941376
8.88679e-06
0.000941378
8.88794e-06
-1.42799e-10
0.000938314
1.05734e-05
-7.93787e-11
0.000938311
1.0572e-05
8.32403e-11
0.000938311
1.05724e-05
1.44525e-10
0.000938311
1.0572e-05
0.000938314
1.05733e-05
-1.47744e-10
0.000934696
1.24232e-05
-8.26732e-11
0.000934693
1.24216e-05
8.85543e-11
0.000934693
1.2422e-05
1.4936e-10
0.000934693
1.24216e-05
0.000934696
1.24232e-05
-1.49025e-10
0.000930466
1.44598e-05
-8.54869e-11
0.000930463
1.4458e-05
9.23389e-11
0.000930462
1.44584e-05
1.5072e-10
0.000930462
1.4458e-05
0.000930465
1.44598e-05
-1.45223e-10
0.000925561
1.66912e-05
-8.71309e-11
0.000925558
1.66891e-05
9.50971e-11
0.000925558
1.66895e-05
1.47108e-10
0.000925558
1.66891e-05
0.000925561
1.66911e-05
-1.35557e-10
0.000919909
1.91484e-05
-8.69612e-11
0.000919906
1.91461e-05
9.69916e-11
0.000919906
1.91465e-05
1.38361e-10
0.000919906
1.91461e-05
0.000919909
1.91484e-05
-1.19338e-10
0.000913438
2.18209e-05
-8.49492e-11
0.000913435
2.18184e-05
9.6562e-11
0.000913435
2.18187e-05
1.23666e-10
0.000913435
2.18184e-05
0.000913438
2.18209e-05
-9.70858e-11
0.000906067
2.47315e-05
-8.104e-11
0.000906065
2.47288e-05
9.35114e-11
0.000906065
2.4729e-05
1.02823e-10
0.000906064
2.47288e-05
0.000906067
2.47315e-05
-6.86897e-11
0.000897714
2.78812e-05
-7.46255e-11
0.000897712
2.78782e-05
8.80997e-11
0.000897712
2.78784e-05
7.56601e-11
0.000897711
2.78782e-05
0.000897714
2.78811e-05
-3.46992e-11
0.000888295
3.12629e-05
-6.52715e-11
0.000888293
3.12598e-05
7.99751e-11
0.000888293
3.12599e-05
4.27999e-11
0.000888293
3.12597e-05
0.000888295
3.12629e-05
3.68825e-12
0.000877721
3.48857e-05
-5.22084e-11
0.00087772
3.48825e-05
6.83593e-11
0.00087772
3.48825e-05
5.21155e-12
0.00087772
3.48825e-05
0.000877721
3.48857e-05
4.62465e-11
0.000865912
3.87185e-05
-3.67473e-11
0.000865911
3.87153e-05
5.26033e-11
0.000865912
3.87152e-05
-3.63178e-11
0.000865911
3.87153e-05
0.000865911
3.87185e-05
9.12304e-11
0.000852781
4.27629e-05
-2.58118e-11
0.000852781
4.27597e-05
3.9139e-11
0.000852782
4.27596e-05
-8.0998e-11
0.00085278
4.27598e-05
0.000852781
4.27629e-05
1.38828e-10
0.00083825
4.69901e-05
-1.35856e-11
0.000838251
4.69871e-05
2.73513e-11
0.000838252
4.69869e-05
-1.28118e-10
0.000838251
4.69871e-05
0.00083825
4.69901e-05
1.87918e-10
0.000822249
5.13695e-05
6.60916e-13
0.00082225
5.13668e-05
1.40406e-11
0.000822252
5.13665e-05
-1.77383e-10
0.00082225
5.13668e-05
0.000822249
5.13695e-05
2.37844e-10
0.000804713
5.58692e-05
1.56685e-11
0.000804716
5.58669e-05
-1.73263e-12
0.000804718
5.58665e-05
-2.27452e-10
0.000804716
5.58669e-05
0.000804713
5.58692e-05
2.8679e-10
0.000785591
6.045e-05
3.28463e-11
0.000785594
6.04483e-05
-1.87969e-11
0.000785596
6.04479e-05
-2.77709e-10
0.000785594
6.04483e-05
0.000785591
6.045e-05
3.33566e-10
0.000764844
6.50646e-05
5.05722e-11
0.000764848
6.50635e-05
-3.81233e-11
0.000764851
6.50631e-05
-3.26299e-10
0.000764848
6.50635e-05
0.000764844
6.50645e-05
3.75978e-10
0.000742449
6.96678e-05
5.71132e-11
0.000742454
6.96675e-05
-5.95085e-11
0.000742456
6.96671e-05
-3.72108e-10
0.000742454
6.96675e-05
0.000742449
6.96678e-05
4.16408e-10
0.0007184
7.42071e-05
7.67887e-11
0.000718405
7.42077e-05
-6.78537e-11
0.000718408
7.42074e-05
-4.11566e-10
0.000718405
7.42077e-05
0.0007184
7.42071e-05
4.50783e-10
0.000692712
7.8623e-05
8.81396e-11
0.000692718
7.86246e-05
-8.51854e-11
0.000692721
7.86244e-05
-4.4726e-10
0.000692718
7.86246e-05
0.000692712
7.86231e-05
4.80042e-10
0.000665419
8.2871e-05
1.05448e-10
0.000665426
8.28736e-05
-9.9582e-11
0.000665429
8.28734e-05
-4.771e-10
0.000665426
8.28736e-05
0.000665419
8.28711e-05
5.04633e-10
0.000636577
8.68932e-05
1.23675e-10
0.000636584
8.68968e-05
-1.16323e-10
0.000636587
8.68968e-05
-5.0038e-10
0.000636584
8.68968e-05
0.000636577
8.68933e-05
5.23131e-10
0.000606262
9.06413e-05
1.47035e-10
0.000606269
9.06458e-05
-1.34403e-10
0.000606272
9.0646e-05
-5.18209e-10
0.000606268
9.06458e-05
0.000606261
9.06413e-05
5.36662e-10
0.000574569
9.40752e-05
1.77379e-10
0.000574576
9.40806e-05
-1.59747e-10
0.000574579
9.40809e-05
-5.29558e-10
0.000574576
9.40806e-05
0.000574569
9.40752e-05
5.43172e-10
0.000541615
9.7153e-05
2.26475e-10
0.000541621
9.71591e-05
-2.0405e-10
0.000541624
9.71596e-05
-5.35728e-10
0.000541621
9.71591e-05
0.000541615
9.7153e-05
5.4366e-10
0.000507528
9.98489e-05
2.59154e-10
0.000507535
9.98556e-05
-2.40479e-10
0.000507537
9.98563e-05
-5.34405e-10
0.000507535
9.98556e-05
0.000507528
9.98489e-05
5.38402e-10
0.000472453
0.000102144
2.84346e-10
0.000472459
0.000102151
-2.65666e-10
0.000472461
0.000102152
-5.28549e-10
0.000472459
0.000102151
0.000472453
0.000102144
5.28507e-10
0.000436542
0.00010402
3.06079e-10
0.000436547
0.000104027
-2.85195e-10
0.00043655
0.000104028
-5.1933e-10
0.000436547
0.000104027
0.000436542
0.00010402
5.18238e-10
0.000399953
0.000105482
3.22391e-10
0.000399958
0.000105489
-3.01673e-10
0.00039996
0.00010549
-5.09156e-10
0.000399958
0.000105489
0.000399953
0.000105482
5.16107e-10
0.000106527
0.00036285
3.30658e-10
0.000106534
0.000362855
-3.13082e-10
0.000106535
0.000362857
-5.06286e-10
0.000106534
0.000362855
0.000106527
0.00036285
3.21259e-10
0.000972695
6.90143e-07
-1.20748e-11
0.000972695
6.88724e-07
1.00117e-11
0.000972694
6.88372e-07
-3.21153e-10
0.000972694
6.88773e-07
0.000972694
6.90221e-07
-3.82103e-10
0.000972499
1.02911e-06
-1.42845e-11
0.000972499
1.02931e-06
1.35491e-11
0.000972498
1.02936e-06
3.82622e-10
0.000972498
1.02931e-06
0.000972499
1.02912e-06
-1.98919e-10
0.000972157
1.77696e-06
4.44557e-12
0.000972156
1.77718e-06
-4.48706e-12
0.000972156
1.77733e-06
2.00558e-10
0.000972156
1.77711e-06
0.000972157
1.77685e-06
-7.58631e-11
0.000971596
2.8811e-06
-1.4316e-11
0.000971595
2.88094e-06
1.34233e-11
0.000971594
2.88111e-06
7.7563e-11
0.000971594
2.88083e-06
0.000971596
2.88093e-06
-9.65075e-11
0.000970759
4.23877e-06
-3.93273e-11
0.000970758
4.23838e-06
3.60087e-11
0.000970758
4.23861e-06
9.83112e-11
0.000970757
4.23829e-06
0.000970759
4.23862e-06
-1.08325e-10
0.000969608
5.76446e-06
-4.56088e-11
0.000969606
5.7639e-06
4.33959e-11
0.000969605
5.76418e-06
1.10086e-10
0.000969605
5.76385e-06
0.000969607
5.76437e-06
-1.12622e-10
0.000968108
7.42595e-06
-5.06421e-11
0.000968106
7.42521e-06
5.02036e-11
0.000968105
7.42553e-06
1.14336e-10
0.000968105
7.42518e-06
0.000968107
7.42591e-06
-1.23349e-10
0.000966227
9.22531e-06
-5.43377e-11
0.000966225
9.22436e-06
5.53474e-11
0.000966225
9.22472e-06
1.24976e-10
0.000966225
9.22435e-06
0.000966227
9.22529e-06
-1.36006e-10
0.00096393
1.11858e-05
-5.6183e-11
0.000963927
1.11847e-05
5.79593e-11
0.000963927
1.1185e-05
1.37328e-10
0.000963927
1.11846e-05
0.000963929
1.11858e-05
-1.47344e-10
0.000961172
1.3331e-05
-5.56817e-11
0.000961169
1.33296e-05
5.94705e-11
0.000961169
1.333e-05
1.48314e-10
0.000961169
1.33296e-05
0.000961172
1.3331e-05
-1.56625e-10
0.000957906
1.56899e-05
-5.21288e-11
0.000957903
1.56883e-05
5.99296e-11
0.000957902
1.56887e-05
1.57937e-10
0.000957902
1.56883e-05
0.000957905
1.56899e-05
-1.63231e-10
0.000954073
1.82927e-05
-4.95456e-11
0.00095407
1.82907e-05
5.77762e-11
0.000954069
1.82911e-05
1.65176e-10
0.000954069
1.82907e-05
0.000954073
1.82926e-05
-1.65957e-10
0.000949613
2.11516e-05
-4.75107e-11
0.000949609
2.11493e-05
5.59651e-11
0.000949609
2.11497e-05
1.68483e-10
0.000949609
2.11493e-05
0.000949612
2.11515e-05
-1.63883e-10
0.000944452
2.43089e-05
-4.45803e-11
0.000944449
2.43063e-05
5.43043e-11
0.000944449
2.43067e-05
1.67652e-10
0.000944449
2.43063e-05
0.000944452
2.43088e-05
-1.55999e-10
0.000938519
2.77542e-05
-4.08997e-11
0.000938516
2.77514e-05
5.09759e-11
0.000938516
2.77517e-05
1.6143e-10
0.000938516
2.77514e-05
0.000938519
2.77542e-05
-1.42388e-10
0.000931731
3.15204e-05
-3.61508e-11
0.000931727
3.15173e-05
4.60579e-11
0.000931727
3.15174e-05
1.49144e-10
0.000931727
3.15172e-05
0.00093173
3.15203e-05
-1.2224e-10
0.000924
3.56124e-05
-3.00134e-11
0.000923996
3.5609e-05
4.03257e-11
0.000923997
3.56091e-05
1.30052e-10
0.000923996
3.5609e-05
0.000923999
3.56123e-05
-9.5239e-11
0.000915237
4.00257e-05
-2.26979e-11
0.000915234
4.00221e-05
3.34789e-11
0.000915234
4.00221e-05
1.04095e-10
0.000915234
4.00221e-05
0.000915236
4.00257e-05
-6.17882e-11