/*--------------------------------*- C++ -*----------------------------------*\
  =========                 |
  \\      /  F ield         | OpenFOAM: The Open Source CFD Toolbox
   \\    /   O peration     | Website:  https://openfoam.org
    \\  /    A nd           | Version:  9
     \\/     M anipulation  |
\*---------------------------------------------------------------------------*/
FoamFile
{
    format      ascii;
    class       volVectorField;
    location    "0.4";
    object      U;
}
// * * * * * * * * * * * * * * * * * * * * * * * * * * * * * * * * * * * * * //

dimensions      [0 1 -1 0 0 0 0];

internalField   nonuniform List<vector> 
4545
(
(1.85496e-05 -0.137221 -0.968808)
(1.84986e-05 -0.13722 5.25277e-08)
(1.84925e-05 -0.13722 1.40729e-09)
(1.85456e-05 -0.13722 -5.02579e-08)
(1.86304e-05 -0.137221 0.968808)
(2.03169e-05 -0.137148 -0.961273)
(1.9876e-05 -0.137146 -5.58621e-08)
(1.98203e-05 -0.137146 1.42727e-09)
(1.99043e-05 -0.137146 5.85265e-08)
(2.0361e-05 -0.137148 0.961273)
(3.23594e-05 -0.137069 -0.960555)
(3.18409e-05 -0.137069 -3.76582e-08)
(3.17781e-05 -0.137069 9.06961e-10)
(3.18437e-05 -0.137069 3.96076e-08)
(3.23603e-05 -0.137068 0.960555)
(5.27839e-05 -0.13694 -0.959825)
(5.2057e-05 -0.136941 -2.14996e-08)
(5.19473e-05 -0.13694 2.85847e-10)
(5.20448e-05 -0.13694 2.25326e-08)
(5.27622e-05 -0.13694 0.959825)
(7.68671e-05 -0.136742 -0.959092)
(7.57896e-05 -0.136742 -1.80495e-08)
(7.56151e-05 -0.136742 -1.25142e-10)
(7.57807e-05 -0.136742 1.84022e-08)
(7.68514e-05 -0.136742 0.959092)
(0.000103004 -0.136467 -0.958346)
(0.000101565 -0.136467 -1.51761e-08)
(0.000101336 -0.136467 -3.08737e-10)
(0.000101566 -0.136467 1.5342e-08)
(0.000103004 -0.136467 0.958346)
(0.000131341 -0.136111 -0.957592)
(0.000129521 -0.136111 -1.23402e-08)
(0.000129233 -0.136111 -3.36586e-10)
(0.000129526 -0.136111 1.25232e-08)
(0.000131347 -0.136111 0.957592)
(0.000162431 -0.135669 -0.956829)
(0.000160183 -0.135669 -9.82624e-09)
(0.000159827 -0.135669 -1.86237e-10)
(0.000160185 -0.135669 1.01648e-08)
(0.000162432 -0.135669 0.956829)
(0.000196901 -0.135134 -0.95606)
(0.000194178 -0.135134 -6.68362e-09)
(0.000193747 -0.135134 8.29893e-11)
(0.000194178 -0.135134 7.3723e-09)
(0.000196898 -0.135134 0.95606)
(0.000235363 -0.134498 -0.955278)
(0.000232112 -0.134498 -2.14241e-09)
(0.000231599 -0.134498 4.33039e-10)
(0.000232112 -0.134498 3.30425e-09)
(0.000235362 -0.134498 0.955278)
(0.000278334 -0.133752 -0.954486)
(0.000274491 -0.133752 4.31764e-09)
(0.000273885 -0.133752 9.68467e-10)
(0.00027449 -0.133752 -2.68905e-09)
(0.00027833 -0.133752 0.954486)
(0.000326237 -0.132885 -0.953687)
(0.000321734 -0.132886 1.30294e-08)
(0.000321021 -0.132886 1.12929e-09)
(0.00032173 -0.132886 -1.12831e-08)
(0.000326228 -0.132885 0.953687)
(0.00037941 -0.131888 -0.952872)
(0.000374179 -0.131888 2.45021e-08)
(0.000373349 -0.131888 1.24228e-09)
(0.000374178 -0.131888 -2.27205e-08)
(0.000379408 -0.131888 0.952872)
(0.00043811 -0.130748 -0.952057)
(0.000432073 -0.130749 3.91349e-08)
(0.000431114 -0.130749 1.39316e-09)
(0.000432077 -0.130749 -3.72393e-08)
(0.000438116 -0.130748 0.952057)
(0.000502454 -0.129454 -0.951221)
(0.00049553 -0.129454 5.71369e-08)
(0.000494425 -0.129454 1.47675e-09)
(0.000495529 -0.129454 -5.51566e-08)
(0.000502452 -0.129454 0.951221)
(0.00057242 -0.127993 -0.950377)
(0.000564529 -0.127994 7.86392e-08)
(0.000563261 -0.127994 1.53484e-09)
(0.00056452 -0.127994 -7.65624e-08)
(0.000572406 -0.127993 0.950377)
(0.000647886 -0.126355 -0.949523)
(0.000638951 -0.126356 1.03883e-07)
(0.000637513 -0.126356 1.71342e-09)
(0.000638945 -0.126356 -1.01485e-07)
(0.000647876 -0.126355 0.949523)
(0.000728546 -0.12453 -0.948654)
(0.000718492 -0.12453 1.32947e-07)
(0.000716871 -0.124531 2.02596e-09)
(0.000718493 -0.12453 -1.2996e-07)
(0.000728547 -0.12453 0.948654)
(0.000813889 -0.122506 -0.947777)
(0.000802643 -0.122507 1.65736e-07)
(0.000800826 -0.122507 2.38725e-09)
(0.000802647 -0.122507 -1.62035e-07)
(0.000813897 -0.122506 0.947777)
(0.000903212 -0.120275 -0.946881)
(0.000890707 -0.120277 2.02121e-07)
(0.000888682 -0.120277 2.7306e-09)
(0.000890713 -0.120277 -1.97713e-07)
(0.000903222 -0.120275 0.946881)
(0.00099565 -0.117832 -0.945973)
(0.000981829 -0.117834 2.41886e-07)
(0.000979586 -0.117834 3.02139e-09)
(0.000981838 -0.117834 -2.36859e-07)
(0.000995665 -0.117832 0.945973)
(0.00109019 -0.115171 -0.945051)
(0.001075 -0.115173 2.84702e-07)
(0.00107253 -0.115174 3.16516e-09)
(0.00107501 -0.115173 -2.79288e-07)
(0.0010902 -0.115171 0.945051)
(0.00118561 -0.11229 -0.944112)
(0.00116902 -0.112292 3.30161e-07)
(0.00116632 -0.112293 3.17723e-09)
(0.00116902 -0.112292 -3.24615e-07)
(0.00118561 -0.11229 0.944112)
(0.00128059 -0.109189 -0.943154)
(0.00126258 -0.109191 3.77802e-07)
(0.00125963 -0.109192 3.1185e-09)
(0.00126257 -0.109191 -3.72287e-07)
(0.00128057 -0.109189 0.943154)
(0.00137372 -0.105871 -0.942178)
(0.00135429 -0.105873 4.27201e-07)
(0.0013511 -0.105874 3.19135e-09)
(0.00135428 -0.105873 -4.21595e-07)
(0.00137371 -0.105871 0.942178)
(0.00146363 -0.10234 -0.941179)
(0.00144278 -0.102343 4.77813e-07)
(0.00143936 -0.102344 3.44702e-09)
(0.00144278 -0.102343 -4.71871e-07)
(0.00146362 -0.10234 0.941179)
(0.00154894 -0.0986067 -0.940159)
(0.00152671 -0.0986092 5.2903e-07)
(0.00152306 -0.09861 3.86876e-09)
(0.00152671 -0.0986092 -5.22499e-07)
(0.00154895 -0.0986068 0.940159)
(0.00162839 -0.0946804 -0.939115)
(0.00160481 -0.0946829 5.80164e-07)
(0.00160094 -0.0946837 4.38109e-09)
(0.00160482 -0.0946829 -5.7293e-07)
(0.0016284 -0.0946804 0.939115)
(0.00170082 -0.0905748 -0.938041)
(0.00167595 -0.0905773 6.30368e-07)
(0.00167187 -0.0905782 4.7233e-09)
(0.00167596 -0.0905773 -6.22684e-07)
(0.00170083 -0.0905748 0.938041)
(0.00176533 -0.0863056 -0.93694)
(0.00173924 -0.086308 6.78856e-07)
(0.00173495 -0.0863089 4.80979e-09)
(0.00173924 -0.086308 -6.71179e-07)
(0.00176533 -0.0863056 0.93694)
(0.00182126 -0.0818898 -0.935806)
(0.00179403 -0.0818922 7.24879e-07)
(0.00178955 -0.0818931 4.54619e-09)
(0.00179403 -0.0818922 -7.17808e-07)
(0.00182126 -0.0818898 0.935806)
(0.00186827 -0.0773462 -0.934636)
(0.00184 -0.0773486 7.67963e-07)
(0.00183534 -0.0773495 4.14233e-09)
(0.00184 -0.0773486 -7.61848e-07)
(0.00186827 -0.0773462 0.934636)
(0.00190633 -0.0726942 -0.93343)
(0.00187712 -0.0726964 8.07792e-07)
(0.0018723 -0.0726973 3.73742e-09)
(0.00187712 -0.0726964 -8.02691e-07)
(0.00190634 -0.0726942 0.93343)
(0.00193573 -0.0679533 -0.932182)
(0.00190568 -0.0679555 8.44318e-07)
(0.00190072 -0.0679563 3.60181e-09)
(0.00190568 -0.0679554 -8.39764e-07)
(0.00193574 -0.0679533 0.932182)
(0.00195707 -0.0631431 -0.930891)
(0.0019263 -0.0631451 8.7754e-07)
(0.00192123 -0.0631459 3.59707e-09)
(0.00192631 -0.0631451 -8.72756e-07)
(0.00195708 -0.0631431 0.930891)
(0.00197129 -0.0582821 -0.929555)
(0.00193994 -0.058284 9.0785e-07)
(0.00193477 -0.0582847 3.37146e-09)
(0.00193995 -0.058284 -9.01718e-07)
(0.00197131 -0.0582821 0.929555)
(0.00197972 -0.0533881 -0.928169)
(0.00194795 -0.0533898 9.35899e-07)
(0.00194271 -0.0533904 2.23208e-09)
(0.00194795 -0.0533898 -9.27105e-07)
(0.00197973 -0.053388 0.928169)
(0.00198387 -0.048477 -0.926731)
(0.00195194 -0.0484785 9.60944e-07)
(0.00194666 -0.048479 2.45676e-10)
(0.00195193 -0.0484784 -9.47662e-07)
(0.00198387 -0.048477 0.926731)
(0.00198527 -0.0435611 -0.923967)
(0.00195351 -0.0435624 9.80016e-07)
(0.00194823 -0.0435629 -5.17469e-10)
(0.00195348 -0.0435624 -9.59308e-07)
(0.00198524 -0.0435611 0.923967)
(7.08884e-05 -0.326975 -0.97854)
(7.09701e-05 -0.326974 5.01624e-08)
(7.10011e-05 -0.326974 6.21012e-10)
(7.10897e-05 -0.326974 -4.90428e-08)
(7.10923e-05 -0.326975 0.97854)
(9.59364e-05 -0.326865 -0.96802)
(9.56805e-05 -0.326862 -8.08067e-08)
(9.56791e-05 -0.326862 7.26519e-10)
(9.5772e-05 -0.326862 8.22747e-08)
(9.60824e-05 -0.326865 0.96802)
(0.000161606 -0.326717 -0.967296)
(0.000161496 -0.326717 -6.174e-08)
(0.000161533 -0.326717 5.25517e-10)
(0.000161528 -0.326717 6.29309e-08)
(0.000161652 -0.326717 0.967296)
(0.000263753 -0.326477 -0.966559)
(0.000263692 -0.326477 -5.64621e-08)
(0.000263722 -0.326477 8.11066e-11)
(0.000263673 -0.326477 5.70751e-08)
(0.00026372 -0.326477 0.966559)
(0.000388757 -0.326105 -0.96582)
(0.000388576 -0.326105 -7.21199e-08)
(0.000388583 -0.326105 -2.99578e-10)
(0.000388552 -0.326105 7.21629e-08)
(0.000388716 -0.326105 0.96582)
(0.000529221 -0.325584 -0.965068)
(0.000528953 -0.325584 -8.7461e-08)
(0.000528966 -0.325584 -4.00398e-10)
(0.00052895 -0.325584 8.73666e-08)
(0.000529213 -0.325584 0.965068)
(0.000684124 -0.324903 -0.964308)
(0.000683791 -0.324902 -1.03566e-07)
(0.000683814 -0.324902 -2.60101e-10)
(0.000683801 -0.324902 1.03634e-07)
(0.000684137 -0.324903 0.964308)
(0.000855506 -0.324049 -0.963539)
(0.000855094 -0.324048 -1.22076e-07)
(0.000855119 -0.324048 6.69706e-11)
(0.000855102 -0.324048 1.22535e-07)
(0.000855515 -0.324049 0.963539)
(0.00104656 -0.323008 -0.962763)
(0.00104606 -0.323007 -1.42325e-07)
(0.00104609 -0.323007 3.90148e-10)
(0.00104606 -0.323007 1.43195e-07)
(0.00104656 -0.323008 0.962763)
(0.00126078 -0.321764 -0.961976)
(0.00126018 -0.321763 -1.63841e-07)
(0.00126021 -0.321763 7.08761e-10)
(0.00126018 -0.321763 1.65058e-07)
(0.00126078 -0.321764 0.961976)
(0.0015015 -0.320298 -0.961177)
(0.00150078 -0.320297 -1.86441e-07)
(0.00150081 -0.320297 9.98569e-10)
(0.00150078 -0.320297 1.87918e-07)
(0.00150149 -0.320298 0.961177)
(0.00177184 -0.318589 -0.960372)
(0.00177099 -0.318588 -2.09983e-07)
(0.00177102 -0.318587 1.08769e-09)
(0.00177098 -0.318588 2.11468e-07)
(0.00177181 -0.318589 0.960372)
(0.00207464 -0.316612 -0.95955)
(0.00207366 -0.316611 -2.3414e-07)
(0.00207369 -0.316611 1.14764e-09)
(0.00207366 -0.316611 2.356e-07)
(0.00207463 -0.316612 0.95955)
(0.00241249 -0.314344 -0.95873)
(0.00241136 -0.314343 -2.58619e-07)
(0.00241139 -0.314342 1.31879e-09)
(0.00241137 -0.314342 2.60279e-07)
(0.0024125 -0.314344 0.95873)
(0.00278753 -0.311756 -0.957889)
(0.00278624 -0.311755 -2.8322e-07)
(0.00278626 -0.311755 1.49268e-09)
(0.00278624 -0.311755 2.85208e-07)
(0.00278754 -0.311756 0.957889)
(0.00320133 -0.308824 -0.957038)
(0.00319985 -0.308822 -3.07855e-07)
(0.00319985 -0.308822 1.65186e-09)
(0.00319983 -0.308822 3.10214e-07)
(0.0032013 -0.308824 0.957038)
(0.00365503 -0.305518 -0.956179)
(0.00365337 -0.305517 -3.32268e-07)
(0.00365336 -0.305516 1.88321e-09)
(0.00365335 -0.305516 3.35147e-07)
(0.003655 -0.305518 0.956179)
(0.00414907 -0.301812 -0.955304)
(0.00414722 -0.301811 -3.56234e-07)
(0.0041472 -0.301811 2.19138e-09)
(0.00414721 -0.301811 3.5979e-07)
(0.00414906 -0.301812 0.955304)
(0.00468304 -0.297681 -0.954422)
(0.00468098 -0.29768 -3.79552e-07)
(0.00468095 -0.29768 2.53628e-09)
(0.00468098 -0.29768 3.83819e-07)
(0.00468304 -0.297681 0.954422)
(0.00525559 -0.293099 -0.953521)
(0.00525333 -0.293098 -4.02026e-07)
(0.0052533 -0.293098 2.79134e-09)
(0.00525334 -0.293098 4.06892e-07)
(0.00525561 -0.293099 0.953521)
(0.00586445 -0.288045 -0.952608)
(0.005862 -0.288044 -4.23299e-07)
(0.00586196 -0.288044 3.14532e-09)
(0.00586201 -0.288044 4.28743e-07)
(0.00586448 -0.288045 0.952608)
(0.00650651 -0.282499 -0.951682)
(0.00650385 -0.282498 -4.43245e-07)
(0.00650381 -0.282499 3.22908e-09)
(0.00650387 -0.282498 4.48988e-07)
(0.00650654 -0.282499 0.951682)
(0.00717752 -0.276447 -0.950737)
(0.00717468 -0.276446 -4.61426e-07)
(0.00717462 -0.276446 3.4615e-09)
(0.00717468 -0.276446 4.67432e-07)
(0.00717753 -0.276447 0.950737)
(0.00787229 -0.269877 -0.949775)
(0.00786926 -0.269876 -4.77721e-07)
(0.00786919 -0.269876 3.40571e-09)
(0.00786924 -0.269876 4.83754e-07)
(0.00787226 -0.269877 0.949775)
(0.00858477 -0.262782 -0.948794)
(0.00858157 -0.262782 -4.91621e-07)
(0.00858151 -0.262782 3.77828e-09)
(0.00858155 -0.262782 4.97958e-07)
(0.00858473 -0.262782 0.948794)
(0.00930829 -0.255164 -0.94779)
(0.00930496 -0.255163 -5.03204e-07)
(0.00930491 -0.255164 3.95791e-09)
(0.00930494 -0.255163 5.09749e-07)
(0.00930827 -0.255164 0.94779)
(0.0100357 -0.247026 -0.946765)
(0.0100322 -0.247026 -5.12362e-07)
(0.0100322 -0.247026 3.88042e-09)
(0.0100322 -0.247026 5.18983e-07)
(0.0100357 -0.247026 0.946765)
(0.0107594 -0.23838 -0.945715)
(0.0107559 -0.23838 -5.18752e-07)
(0.0107559 -0.238381 4.30081e-09)
(0.0107559 -0.23838 5.25692e-07)
(0.0107595 -0.23838 0.945715)
(0.011472 -0.229243 -0.944636)
(0.0114684 -0.229243 -5.22858e-07)
(0.0114684 -0.229244 4.07919e-09)
(0.0114684 -0.229243 5.29619e-07)
(0.011472 -0.229243 0.944636)
(0.012166 -0.219639 -0.943528)
(0.0121623 -0.219639 -5.24492e-07)
(0.0121623 -0.21964 4.22495e-09)
(0.0121623 -0.219639 5.31008e-07)
(0.012166 -0.219639 0.943528)
(0.0128346 -0.209595 -0.942386)
(0.0128309 -0.209595 -5.24214e-07)
(0.012831 -0.209596 3.5568e-09)
(0.0128309 -0.209595 5.2985e-07)
(0.0128347 -0.209595 0.942386)
(0.013472 -0.199145 -0.941209)
(0.0134682 -0.199146 -5.21637e-07)
(0.0134683 -0.199147 3.52098e-09)
(0.0134682 -0.199146 5.26646e-07)
(0.013472 -0.199145 0.941209)
(0.014073 -0.188328 -0.939993)
(0.0140692 -0.188329 -5.17089e-07)
(0.0140693 -0.18833 2.92203e-09)
(0.0140692 -0.188329 5.21347e-07)
(0.014073 -0.188328 0.939993)
(0.0146339 -0.177184 -0.938736)
(0.01463 -0.177185 -5.09957e-07)
(0.0146302 -0.177185 3.35445e-09)
(0.0146301 -0.177184 5.14168e-07)
(0.0146339 -0.177184 0.938736)
(0.0151522 -0.165756 -0.937433)
(0.0151484 -0.165757 -5.00567e-07)
(0.0151486 -0.165758 3.36541e-09)
(0.0151484 -0.165757 5.04629e-07)
(0.0151523 -0.165756 0.937433)
(0.015627 -0.154091 -0.936085)
(0.0156231 -0.154092 -4.88728e-07)
(0.0156233 -0.154093 4.46915e-09)
(0.0156231 -0.154092 4.93032e-07)
(0.015627 -0.154091 0.936085)
(0.0160586 -0.142232 -0.934683)
(0.0160548 -0.142234 -4.74881e-07)
(0.016055 -0.142234 6.11447e-09)
(0.0160548 -0.142234 4.79296e-07)
(0.0160586 -0.142232 0.934683)
(0.0164492 -0.130224 -0.93323)
(0.0164453 -0.130227 -4.55534e-07)
(0.0164456 -0.130228 5.80043e-09)
(0.0164453 -0.130227 4.58987e-07)
(0.0164492 -0.130224 0.93323)
(0.0168016 -0.118113 -0.930573)
(0.0167976 -0.118116 -4.19465e-07)
(0.0167979 -0.118117 4.12619e-09)
(0.0167975 -0.118116 4.23419e-07)
(0.0168014 -0.118113 0.930573)
(0.000136216 -0.418354 -0.979956)
(0.000136264 -0.418353 5.46972e-08)
(0.000136279 -0.418353 -8.22769e-12)
(0.000136383 -0.418353 -5.44718e-08)
(0.000136416 -0.418354 0.979956)
(0.000201747 -0.418242 -0.968047)
(0.000201979 -0.41824 -7.14499e-08)
(0.000202036 -0.418239 2.74137e-10)
(0.000202076 -0.418239 7.20523e-08)
(0.000201904 -0.418241 0.968047)
(0.000349944 -0.418087 -0.967323)
(0.000350492 -0.418087 -3.94221e-08)
(0.000350609 -0.418087 2.87492e-10)
(0.000350527 -0.418087 4.0151e-08)
(0.000349999 -0.418087 0.967323)
(0.00057375 -0.417833 -0.966586)
(0.000574587 -0.417833 -2.17675e-08)
(0.000574744 -0.417833 -3.97077e-11)
(0.000574563 -0.417833 2.21655e-08)
(0.00057371 -0.417833 0.966586)
(0.000851772 -0.417435 -0.965847)
(0.000852844 -0.417435 -2.59272e-08)
(0.000853046 -0.417434 -2.26458e-10)
(0.000852811 -0.417434 2.59454e-08)
(0.000851717 -0.417434 0.965847)
(0.00116926 -0.416869 -0.965096)
(0.00117062 -0.416869 -2.64018e-08)
(0.00117089 -0.416869 -2.05912e-10)
(0.00117061 -0.416869 2.63987e-08)
(0.00116924 -0.416869 0.965096)
(0.00152246 -0.416122 -0.964335)
(0.00152415 -0.416122 -2.5209e-08)
(0.00152449 -0.416122 -2.81687e-11)
(0.00152416 -0.416122 2.54624e-08)
(0.00152247 -0.416122 0.964335)
(0.00191484 -0.415178 -0.963566)
(0.00191688 -0.415177 -2.47017e-08)
(0.00191729 -0.415177 2.58987e-10)
(0.00191689 -0.415177 2.53618e-08)
(0.00191485 -0.415177 0.963566)
(0.00235321 -0.41402 -0.96279)
(0.00235563 -0.41402 -2.39164e-08)
(0.00235611 -0.414019 4.69351e-10)
(0.00235563 -0.414019 2.48569e-08)
(0.00235321 -0.414019 0.96279)
(0.00284554 -0.412629 -0.962003)
(0.00284837 -0.412629 -2.20365e-08)
(0.00284893 -0.412629 6.7676e-10)
(0.00284837 -0.412629 2.31612e-08)
(0.00284553 -0.412629 0.962003)
(0.00339985 -0.410983 -0.961204)
(0.00340314 -0.410983 -1.85784e-08)
(0.00340378 -0.410983 8.77435e-10)
(0.00340313 -0.410983 1.98818e-08)
(0.00339984 -0.410983 0.961204)
(0.00402402 -0.409057 -0.960399)
(0.0040278 -0.409057 -1.30968e-08)
(0.00402853 -0.409057 9.74737e-10)
(0.00402779 -0.409057 1.44249e-08)
(0.004024 -0.409057 0.960399)
(0.00472548 -0.406822 -0.959577)
(0.00472981 -0.406822 -5.12924e-09)
(0.00473062 -0.406822 1.08906e-09)
(0.0047298 -0.406822 6.51613e-09)
(0.00472547 -0.406821 0.959577)
(0.00551127 -0.404247 -0.958756)
(0.00551618 -0.404247 5.8042e-09)
(0.0055171 -0.404247 1.34449e-09)
(0.00551619 -0.404247 -4.07762e-09)
(0.00551128 -0.404247 0.958756)
(0.00638775 -0.401301 -0.957915)
(0.00639329 -0.401301 2.02236e-08)
(0.0063943 -0.401301 1.56798e-09)
(0.00639329 -0.401301 -1.80176e-08)
(0.00638775 -0.4013 0.957915)
(0.00736016 -0.397948 -0.957064)
(0.00736636 -0.397949 3.82226e-08)
(0.00736747 -0.397949 1.74562e-09)
(0.00736635 -0.397949 -3.55432e-08)
(0.00736013 -0.397948 0.957064)
(0.00843303 -0.394155 -0.956205)
(0.00843995 -0.394155 6.00789e-08)
(0.00844116 -0.394156 1.91948e-09)
(0.00843992 -0.394155 -5.68735e-08)
(0.00843299 -0.394155 0.956205)
(0.00960941 -0.389884 -0.95533)
(0.00961707 -0.389885 8.60458e-08)
(0.00961839 -0.389886 2.13555e-09)
(0.00961706 -0.389885 -8.22416e-08)
(0.00960939 -0.389884 0.95533)
(0.0108908 -0.385101 -0.954448)
(0.0108992 -0.385103 1.16584e-07)
(0.0109007 -0.385103 2.67756e-09)
(0.0108992 -0.385103 -1.12127e-07)
(0.0108908 -0.385101 0.954448)
(0.0122767 -0.379771 -0.953547)
(0.0122859 -0.379773 1.50829e-07)
(0.0122875 -0.379773 2.25761e-09)
(0.012286 -0.379773 -1.46056e-07)
(0.0122767 -0.379771 0.953547)
(0.0137646 -0.373861 -0.952635)
(0.0137747 -0.373863 1.89911e-07)
(0.0137763 -0.373864 3.55037e-09)
(0.0137747 -0.373863 -1.84351e-07)
(0.0137646 -0.373861 0.952635)
(0.01535 -0.367341 -0.951709)
(0.0153609 -0.367343 2.32316e-07)
(0.0153627 -0.367344 2.4712e-09)
(0.0153609 -0.367343 -2.26713e-07)
(0.01535 -0.36734 0.951709)
(0.0170257 -0.360182 -0.950766)
(0.0170374 -0.360185 2.79142e-07)
(0.0170394 -0.360186 4.38608e-09)
(0.0170375 -0.360185 -2.72732e-07)
(0.0170257 -0.360182 0.950766)
(0.0187822 -0.352364 -0.949806)
(0.0187948 -0.352367 3.28415e-07)
(0.0187968 -0.352368 2.64375e-09)
(0.0187948 -0.352367 -3.2226e-07)
(0.0187822 -0.352364 0.949806)
(0.0206077 -0.343868 -0.948827)
(0.0206211 -0.343871 3.81639e-07)
(0.0206233 -0.343872 5.65167e-09)
(0.0206211 -0.343871 -3.74428e-07)
(0.0206077 -0.343868 0.948827)
(0.0224881 -0.334683 -0.947826)
(0.0225024 -0.334686 4.36166e-07)
(0.0225047 -0.334688 5.80794e-09)
(0.0225024 -0.334686 -4.29097e-07)
(0.0224881 -0.334683 0.947826)
(0.0244076 -0.324805 -0.946804)
(0.0244227 -0.324808 4.91071e-07)
(0.0244251 -0.32481 2.0258e-09)
(0.0244227 -0.324808 -4.85535e-07)
(0.0244076 -0.324805 0.946804)
(0.0263487 -0.314236 -0.945758)
(0.0263646 -0.31424 5.48201e-07)
(0.0263672 -0.314241 5.27964e-09)
(0.0263646 -0.31424 -5.42465e-07)
(0.0263488 -0.314236 0.945758)
(0.0282929 -0.302987 -0.944683)
(0.0283095 -0.302992 6.03464e-07)
(0.0283122 -0.302993 7.83877e-10)
(0.0283095 -0.302991 -5.99374e-07)
(0.028293 -0.302987 0.944683)
(0.0302211 -0.291079 -0.943579)
(0.0302383 -0.291083 6.59721e-07)
(0.0302412 -0.291085 5.23785e-09)
(0.0302383 -0.291083 -6.55017e-07)
(0.0302211 -0.291079 0.943579)
(0.0321144 -0.278536 -0.942443)
(0.0321322 -0.278541 7.12352e-07)
(0.0321351 -0.278542 -3.02614e-11)
(0.0321322 -0.278541 -7.09102e-07)
(0.0321144 -0.278536 0.942443)
(0.0339546 -0.265396 -0.94127)
(0.0339729 -0.2654 7.64963e-07)
(0.033976 -0.265402 5.74571e-09)
(0.0339729 -0.2654 -7.60336e-07)
(0.0339546 -0.265396 0.94127)
(0.0357251 -0.251699 -0.94006)
(0.0357438 -0.251704 8.12671e-07)
(0.035747 -0.251705 -3.40749e-11)
(0.0357438 -0.251704 -8.08882e-07)
(0.0357251 -0.251699 0.94006)
(0.037411 -0.237496 -0.938808)
(0.03743 -0.2375 8.59631e-07)
(0.0374332 -0.237502 6.56058e-09)
(0.03743 -0.2375 -8.53776e-07)
(0.037411 -0.237496 0.938808)
(0.039 -0.222839 -0.937511)
(0.0390192 -0.222843 9.00775e-07)
(0.0390225 -0.222845 -1.11207e-09)
(0.0390192 -0.222843 -8.95866e-07)
(0.039 -0.222839 0.937511)
(0.0404825 -0.207789 -0.936167)
(0.0405017 -0.207793 9.40129e-07)
(0.040505 -0.207794 -1.50814e-10)
(0.0405017 -0.207793 -9.33586e-07)
(0.0404825 -0.207789 0.936167)
(0.0418518 -0.192407 -0.93477)
(0.041871 -0.19241 9.76686e-07)
(0.0418742 -0.192411 1.07524e-08)
(0.0418709 -0.19241 -9.66112e-07)
(0.0418517 -0.192406 0.93477)
(0.0431043 -0.176756 -0.933321)
(0.0431232 -0.176759 1.00374e-06)
(0.0431264 -0.17676 1.09823e-08)
(0.0431231 -0.176759 -9.93287e-07)
(0.0431041 -0.176756 0.933321)
(0.044238 -0.1609 -0.930748)
(0.0442564 -0.160903 1.01657e-06)
(0.0442596 -0.160904 -1.1873e-10)
(0.0442563 -0.160903 -1.0097e-06)
(0.0442378 -0.1609 0.930748)
(0.000197959 -0.451904 -0.980475)
(0.000197702 -0.451903 5.22399e-08)
(0.000197631 -0.451903 -3.0547e-10)
(0.000197767 -0.451903 -5.24725e-08)
(0.000198063 -0.451903 0.980475)
(0.000299041 -0.4518 -0.968054)
(0.000299186 -0.451798 -6.81345e-08)
(0.000299204 -0.451797 5.58157e-12)
(0.000299235 -0.451798 6.82668e-08)
(0.000299119 -0.451799 0.968054)
(0.000523781 -0.451658 -0.96733)
(0.000524075 -0.451658 -3.52809e-08)
(0.000524128 -0.451658 1.13582e-10)
(0.000524078 -0.451658 3.57157e-08)
(0.000523785 -0.451658 0.96733)
(0.000862714 -0.451425 -0.966592)
(0.000863037 -0.451426 -1.81477e-08)
(0.000863096 -0.451426 -2.00716e-11)
(0.000863 -0.451426 1.8459e-08)
(0.000862651 -0.451425 0.966592)
(0.00128785 -0.451056 -0.965852)
(0.00128818 -0.451056 -2.45456e-08)
(0.00128825 -0.451056 -2.47427e-10)
(0.00128814 -0.451056 2.45796e-08)
(0.00128778 -0.451056 0.965852)
(0.00177775 -0.450528 -0.965099)
(0.0017781 -0.450528 -2.74559e-08)
(0.00177819 -0.450528 -2.24702e-10)
(0.00177808 -0.450528 2.75135e-08)
(0.00177772 -0.450527 0.965099)
(0.00232566 -0.449824 -0.964337)
(0.00232602 -0.449824 -2.88777e-08)
(0.00232613 -0.449824 -3.78092e-11)
(0.00232602 -0.449824 2.91757e-08)
(0.00232566 -0.449824 0.964337)
(0.002936 -0.448929 -0.963567)
(0.00293637 -0.448929 -3.15675e-08)
(0.00293648 -0.448929 2.09589e-10)
(0.00293637 -0.448929 3.21746e-08)
(0.00293601 -0.448929 0.963567)
(0.00361895 -0.447826 -0.96279)
(0.0036193 -0.447826 -3.46256e-08)
(0.00361941 -0.447826 3.562e-10)
(0.0036193 -0.447826 3.53731e-08)
(0.00361894 -0.447826 0.96279)
(0.00438688 -0.446497 -0.962001)
(0.00438721 -0.446496 -3.7343e-08)
(0.00438732 -0.446496 5.52647e-10)
(0.00438721 -0.446496 3.82101e-08)
(0.00438687 -0.446496 0.962)
(0.00525269 -0.444917 -0.9612)
(0.00525299 -0.444917 -3.94907e-08)
(0.00525308 -0.444917 8.01043e-10)
(0.00525298 -0.444917 4.05919e-08)
(0.00525268 -0.444917 0.9612)
(0.00622936 -0.443061 -0.960393)
(0.00622959 -0.443061 -4.09072e-08)
(0.00622966 -0.443061 9.21914e-10)
(0.00622958 -0.443061 4.21503e-08)
(0.00622934 -0.443061 0.960393)
(0.00732939 -0.440901 -0.959568)
(0.00732954 -0.440901 -4.11893e-08)
(0.00732959 -0.440901 1.09107e-09)
(0.00732954 -0.440901 4.26449e-08)
(0.00732938 -0.440901 0.959568)
(0.00856493 -0.438404 -0.958745)
(0.00856498 -0.438404 -3.99903e-08)
(0.00856499 -0.438404 1.43467e-09)
(0.00856498 -0.438404 4.19778e-08)
(0.00856494 -0.438403 0.958745)
(0.00994738 -0.435535 -0.957901)
(0.00994729 -0.435535 -3.71591e-08)
(0.00994725 -0.435535 1.7351e-09)
(0.00994729 -0.435535 3.97647e-08)
(0.00994738 -0.435535 0.957901)
(0.0114866 -0.432259 -0.957048)
(0.0114864 -0.432259 -3.27046e-08)
(0.0114863 -0.432259 1.93949e-09)
(0.0114864 -0.432259 3.58212e-08)
(0.0114866 -0.432259 0.957048)
(0.0131918 -0.428537 -0.956186)
(0.0131913 -0.428537 -2.64787e-08)
(0.0131911 -0.428537 2.16727e-09)
(0.0131913 -0.428537 3.01045e-08)
(0.0131917 -0.428537 0.956186)
(0.0150697 -0.424328 -0.955308)
(0.015069 -0.424329 -1.8511e-08)
(0.0150687 -0.424329 2.41258e-09)
(0.015069 -0.424329 2.26528e-08)
(0.0150697 -0.424328 0.955308)
(0.0171254 -0.419593 -0.954423)
(0.0171243 -0.419594 -8.93681e-09)
(0.017124 -0.419594 2.64e-09)
(0.0171243 -0.419594 1.35143e-08)
(0.0171254 -0.419593 0.954423)
(0.0193608 -0.41429 -0.95352)
(0.0193594 -0.414291 2.06101e-09)
(0.019359 -0.414292 2.6885e-09)
(0.0193594 -0.414291 2.83252e-09)
(0.0193608 -0.41429 0.95352)
(0.0217748 -0.40838 -0.952605)
(0.0217731 -0.408381 1.47839e-08)
(0.0217725 -0.408382 3.03685e-09)
(0.0217731 -0.408381 -9.42916e-09)
(0.0217749 -0.40838 0.952605)
(0.0243633 -0.401823 -0.951677)
(0.0243611 -0.401825 2.89178e-08)
(0.0243605 -0.401825 3.1994e-09)
(0.0243612 -0.401824 -2.3244e-08)
(0.0243633 -0.401823 0.951677)
(0.0271179 -0.394584 -0.950732)
(0.0271153 -0.394586 4.44431e-08)
(0.0271145 -0.394586 3.48529e-09)
(0.0271153 -0.394586 -3.84751e-08)
(0.0271179 -0.394584 0.950732)
(0.0300263 -0.38663 -0.94977)
(0.0300233 -0.386632 6.09631e-08)
(0.0300224 -0.386633 3.36987e-09)
(0.0300233 -0.386632 -5.50952e-08)
(0.0300263 -0.38663 0.94977)
(0.0330722 -0.377934 -0.948791)
(0.0330688 -0.377936 7.84202e-08)
(0.0330677 -0.377937 3.46525e-09)
(0.0330687 -0.377936 -7.27283e-08)
(0.0330722 -0.377934 0.948791)
(0.0362351 -0.368474 -0.94779)
(0.0362313 -0.368476 9.62233e-08)
(0.0362301 -0.368477 3.206e-09)
(0.0362313 -0.368476 -9.11997e-08)
(0.0362351 -0.368474 0.94779)
(0.0394911 -0.358234 -0.946769)
(0.0394868 -0.358237 1.14202e-07)
(0.0394856 -0.358238 3.01734e-09)
(0.0394868 -0.358237 -1.10197e-07)
(0.0394911 -0.358234 0.946769)
(0.0428125 -0.347208 -0.945724)
(0.0428079 -0.347211 1.31685e-07)
(0.0428066 -0.347212 1.61208e-09)
(0.0428079 -0.347211 -1.28813e-07)
(0.0428125 -0.347208 0.945724)
(0.0461691 -0.335398 -0.944651)
(0.0461642 -0.335401 1.48719e-07)
(0.0461628 -0.335402 1.45694e-09)
(0.0461642 -0.335401 -1.46327e-07)
(0.0461692 -0.335398 0.944651)
(0.0495286 -0.322815 -0.943551)
(0.0495234 -0.322817 1.65427e-07)
(0.049522 -0.322819 2.07804e-09)
(0.0495234 -0.322817 -1.62553e-07)
(0.0495287 -0.322815 0.943551)
(0.0528578 -0.309479 -0.942419)
(0.0528523 -0.309482 1.81001e-07)
(0.0528509 -0.309483 2.43349e-09)
(0.0528524 -0.309482 -1.77393e-07)
(0.0528579 -0.309479 0.942419)
(0.0561235 -0.295423 -0.941251)
(0.0561177 -0.295426 1.95404e-07)
(0.0561163 -0.295427 3.5662e-09)
(0.0561178 -0.295426 -1.90451e-07)
(0.0561235 -0.295423 0.941251)
(0.0592935 -0.280688 -0.940046)
(0.0592876 -0.28069 2.07704e-07)
(0.0592861 -0.280692 3.89788e-09)
(0.0592876 -0.28069 -2.01765e-07)
(0.0592935 -0.280688 0.940046)
(0.062338 -0.265323 -0.9388)
(0.0623319 -0.265325 2.18222e-07)
(0.0623304 -0.265326 4.81843e-09)
(0.0623319 -0.265325 -2.11222e-07)
(0.0623381 -0.265323 0.9388)
(0.0652304 -0.249387 -0.937509)
(0.065224 -0.249389 2.26953e-07)
(0.0652226 -0.24939 4.52111e-09)
(0.065224 -0.249389 -2.19665e-07)
(0.0652304 -0.249387 0.937509)
(0.0679479 -0.232946 -0.936171)
(0.0679413 -0.232948 2.34182e-07)
(0.0679399 -0.232949 4.69795e-09)
(0.0679413 -0.232948 -2.26481e-07)
(0.0679479 -0.232946 0.936171)
(0.0704724 -0.21607 -0.93478)
(0.0704656 -0.216071 2.40137e-07)
(0.0704641 -0.216072 5.6005e-09)
(0.0704656 -0.216071 -2.31682e-07)
(0.0704723 -0.216069 0.93478)
(0.0727901 -0.198833 -0.933337)
(0.0727832 -0.198834 2.4503e-07)
(0.0727817 -0.198835 5.62564e-09)
(0.0727831 -0.198834 -2.36524e-07)
(0.07279 -0.198833 0.933337)
(0.0748901 -0.181311 -0.930808)
(0.074883 -0.181313 2.50893e-07)
(0.0748815 -0.181314 4.59821e-09)
(0.0748829 -0.181313 -2.43117e-07)
(0.0748898 -0.181311 0.930808)
(0.000253922 -0.462087 -0.980631)
(0.000253464 -0.462086 4.71141e-08)
(0.000253335 -0.462086 -3.16365e-10)
(0.00025349 -0.462086 -4.74144e-08)
(0.000253961 -0.462087 0.980631)
(0.000385632 -0.461994 -0.968055)
(0.000385793 -0.461993 -6.16384e-08)
(0.000385808 -0.461992 -1.15019e-10)
(0.000385803 -0.461993 6.16041e-08)
(0.000385648 -0.461994 0.968055)
(0.000678348 -0.46187 -0.967328)
(0.000678613 -0.46187 -3.08341e-08)
(0.000678667 -0.46187 -6.61853e-12)
(0.00067859 -0.46187 3.10875e-08)
(0.000678311 -0.46187 0.967328)
(0.00112092 -0.461666 -0.966589)
(0.00112113 -0.461666 -1.49902e-08)
(0.00112119 -0.461666 4.27789e-11)
(0.00112108 -0.461666 1.5308e-08)
(0.00112084 -0.461666 0.966589)
(0.00167961 -0.46134 -0.965847)
(0.00167981 -0.46134 -2.15699e-08)
(0.00167989 -0.46134 -1.28625e-10)
(0.00167977 -0.46134 2.17389e-08)
(0.00167954 -0.46134 0.965847)
(0.00232722 -0.460872 -0.965092)
(0.00232743 -0.460872 -2.48096e-08)
(0.00232754 -0.460872 -1.08657e-10)
(0.00232741 -0.460872 2.49973e-08)
(0.00232719 -0.460872 0.965092)
(0.0030544 -0.460247 -0.964328)
(0.00305462 -0.460247 -2.65698e-08)
(0.00305475 -0.460247 2.01169e-11)
(0.00305461 -0.460247 2.68842e-08)
(0.00305439 -0.460246 0.964328)
(0.0038665 -0.459449 -0.963555)
(0.0038667 -0.459448 -2.95644e-08)
(0.00386684 -0.459448 1.93139e-10)
(0.0038667 -0.459448 3.00424e-08)
(0.00386649 -0.459448 0.963555)
(0.00477681 -0.458462 -0.962775)
(0.004777 -0.458461 -3.29262e-08)
(0.00477715 -0.458461 2.87277e-10)
(0.004777 -0.458461 3.34497e-08)
(0.0047768 -0.458461 0.962775)
(0.00580202 -0.457267 -0.961983)
(0.00580219 -0.457267 -3.60138e-08)
(0.00580234 -0.457267 4.78248e-10)
(0.00580218 -0.457267 3.66687e-08)
(0.00580201 -0.457267 0.961983)
(0.00695986 -0.455843 -0.961179)
(0.00695998 -0.455843 -3.8712e-08)
(0.00696014 -0.455843 7.50035e-10)
(0.00695998 -0.455843 3.97058e-08)
(0.00695985 -0.455843 0.961179)
(0.00826852 -0.454165 -0.960368)
(0.00826858 -0.454165 -4.09383e-08)
(0.00826873 -0.454165 9.02066e-10)
(0.00826858 -0.454165 4.2209e-08)
(0.0082685 -0.454165 0.960368)
(0.00974588 -0.452205 -0.95954)
(0.00974587 -0.452205 -4.22486e-08)
(0.00974601 -0.452204 1.13111e-09)
(0.00974587 -0.452204 4.3868e-08)
(0.00974587 -0.452205 0.95954)
(0.0114097 -0.44993 -0.958711)
(0.0114096 -0.44993 -4.22806e-08)
(0.0114097 -0.44993 1.50505e-09)
(0.0114096 -0.44993 4.45287e-08)
(0.0114097 -0.44993 0.958711)
(0.0132769 -0.447306 -0.957863)
(0.0132767 -0.447306 -4.0867e-08)
(0.0132768 -0.447306 1.77616e-09)
(0.0132767 -0.447306 4.37354e-08)
(0.0132769 -0.447306 0.957863)
(0.015363 -0.444296 -0.957004)
(0.0153627 -0.444296 -3.78856e-08)
(0.0153627 -0.444296 1.92648e-09)
(0.0153627 -0.444296 4.11981e-08)
(0.015363 -0.444296 0.957004)
(0.0176827 -0.44086 -0.956136)
(0.0176822 -0.44086 -3.29966e-08)
(0.0176822 -0.44086 2.12185e-09)
(0.0176822 -0.44086 3.6753e-08)
(0.0176827 -0.44086 0.956136)
(0.020248 -0.436956 -0.955252)
(0.0202473 -0.436957 -2.60699e-08)