/*--------------------------------*- C++ -*----------------------------------*\
  =========                 |
  \\      /  F ield         | OpenFOAM: The Open Source CFD Toolbox
   \\    /   O peration     | Website:  https://openfoam.org
    \\  /    A nd           | Version:  9
     \\/     M anipulation  |
\*---------------------------------------------------------------------------*/
FoamFile
{
    format      ascii;
    class       volScalarField;
    location    "0.7";
    object      epsilon;
}
// * * * * * * * * * * * * * * * * * * * * * * * * * * * * * * * * * * * * * //

dimensions      [0 2 -3 0 0 0 0];

internalField   nonuniform List<scalar> 
36360
(
0.421423
0.410094
0.0559455
0.0719095
0.0307264
0.0227088
0.00848069
0.00712718
0.0332547
0.00491921
0.00768098
0.00545404
0.00639505
0.00518313
0.00602187
0.00628959
0.00391145
0.00391147
0.00574074
0.00574074
0.00525439
0.00525439
0.00629992
0.00629991
0.00491901
0.0332513
0.0054541
0.0076809
0.00518318
0.00639491
0.00628957
0.00602186
0.410066
0.421386
0.071907
0.0559425
0.0227065
0.0307238
0.00712713
0.00848063
2.01345
1.51612
1.29934
1.01469
0.665435
0.403416
0.206851
0.136796
0.386254
0.0470156
0.160129
0.0121782
0.060721
0.00638188
0.0146341
0.00485088
0.00385025
0.00384981
0.00292367
0.00292359
0.00383128
0.00383127
0.00439221
0.0043922
0.0470072
0.38623
0.0121764
0.160114
0.00638132
0.0607111
0.00485075
0.0146325
1.51609
2.01344
1.01465
1.29928
0.403387
0.665414
0.136782
0.20683
2.77246
2.08978
2.48042
1.86326
1.36733
0.858147
1.078
0.664139
0.69415
0.168927
0.56697
0.113279
0.229613
0.0254321
0.150477
0.0132246
0.0177972
0.0177911
0.00858749
0.008586
0.00394469
0.00394444
0.00372105
0.00372098
0.1689
0.69413
0.113266
0.566955
0.0254254
0.229594
0.013223
0.150467
2.08982
2.7726
1.86328
2.48048
0.858175
1.36745
0.664149
1.07805
3.04786
2.30994
2.94705
2.22865
1.65334
1.05757
1.54822
0.983602
0.824412
0.230875
0.775719
0.207369
0.318304
0.0435091
0.284799
0.0361959
0.0314812
0.0314666
0.0259047
0.0258969
0.00464378
0.00464288
0.00433399
0.00433359
0.230832
0.824391
0.207341
0.775709
0.0434933
0.318275
0.0361879
0.284783
2.31002
3.04809
2.22872
2.94721
1.05762
1.65356
0.983642
1.54836
3.1279
2.37499
3.10153
2.35343
1.73649
1.11553
1.70949
1.09702
0.864135
0.249901
0.850949
0.243703
0.344896
0.0494692
0.336369
0.0475903
0.0361198
0.0361012
0.0346418
0.0346284
0.00491119
0.00490977
0.00482831
0.00482734
0.249855
0.864128
0.24367
0.850954
0.0494478
0.344871
0.0475754
0.336354
2.37511
3.1282
2.35355
3.10179
1.11563
1.7368
1.09712
1.70974
3.13758
2.38304
3.13721
2.38269
1.74756
1.12186
1.74655
1.1218
0.869667
0.252477
0.869148
0.252203
0.34818
0.0501036
0.347918
0.0500788
0.036635
0.0366102
0.0366084
0.036589
0.00493112
0.00492933
0.00493356
0.00493202
0.252398
0.869596
0.252154
0.869131
0.050074
0.348113
0.050055
0.347881
2.38306
3.1378
2.38279
3.13746
1.12189
1.74778
1.12188
1.7468
3.12352
2.37153
3.13316
2.37934
1.73833
1.11364
1.74506
1.11928
0.864735
0.250476
0.868257
0.251947
0.345074
0.049315
0.347304
0.0498625
0.0360579
0.0360214
0.0364674
0.0364388
0.00488025
0.00487789
0.00491235
0.00491027
0.250324
0.864492
0.251845
0.868135
0.0492669
0.344889
0.0498244
0.347188
2.37141
3.12363
2.37927
3.13319
1.11337
1.73823
1.11919
1.74515
3.10056
2.35364
3.11215
2.36253
1.72271
1.10152
1.73056
1.10755
0.856713
0.247243
0.860691
0.248844
0.340395
0.048258
0.342716
0.0487779
0.0352566
0.0352362
0.0356506
0.0356228
0.00482092
0.00482028
0.00485005
0.00484868
0.247107
0.85634
0.248697
0.860364
0.0482393
0.340243
0.0487445
0.342533
2.35277
3.09982
2.36188
3.11167
1.10101
1.72229
1.10711
1.7302
3.07999
2.33873
3.0895
2.34544
1.70848
1.0909
1.71534
1.09595
0.849707
0.244359
0.85302
0.245758
0.336229
0.0473097
0.338253
0.0477743
0.0345401
0.0345333
0.034891
0.0348849
0.00476647
0.00476643
0.00479337
0.0047936
0.244285
0.849369
0.245673
0.852706
0.0473066
0.336144
0.0477733
0.33816
2.33683
3.07838
2.34437
3.08868
1.09044
1.7082
1.09551
1.71494
3.06547
2.32793
3.07246
2.33335
1.69621
1.08172
1.7023
1.0863
0.843789
0.241679
0.846711
0.243017
0.332308
0.0464027
0.33427
0.0468573
0.0338613
0.0338586
0.0342017
0.0342016
0.00471355
0.00471336
0.00474012
0.00474029
0.241644
0.843399
0.242981
0.846352
0.0464055
0.332307
0.0468626
0.334248
2.32497
3.06143
2.33042
3.0692
1.08131
1.69581
1.08584
1.70189
3.04632
2.31397
3.05582
2.3206
1.68362
1.07239
1.68995
1.07705
0.837672
0.239021
0.840723
0.240348
0.328444
0.0455021
0.330372
0.0459534
0.0331893
0.0331862
0.033526
0.0335293
0.00465991
0.00465981
0.004687
0.00468713
0.23899
0.83747
0.240337
0.840435
0.0455056
0.328453
0.0459631
0.330401
2.31359
3.04556
2.31928
3.05352
1.07221
1.68354
1.07674
1.68961
3.02775
2.30088
3.0364
2.30701
1.67048
1.06274
1.67714
1.06758
0.831378
0.236307
0.834515
0.237685
0.324508
0.0445953
0.326511
0.0450544
0.0325148
0.032519
0.0328563
0.0328573
0.00460513
0.00460578
0.00463282
0.00463319
0.236315
0.831403
0.237665
0.834424
0.0446121
0.324582
0.0450636
0.326532
2.30169
3.02856
2.30733
3.03662
1.06294
1.67072
1.06756
1.67711
3.00768
2.28744
3.01691
2.29318
1.65691
1.05308
1.6635
1.05773
0.825113
0.233572
0.828115
0.234923
0.320537
0.043691
0.322497
0.0441417
0.0318427
0.0318476
0.0321782
0.032191
0.00454967
0.00455018
0.00457756
0.00457875
0.233583
0.825088
0.234965
0.828217
0.043705
0.320599
0.0441693
0.322614
2.2881
3.00936
2.29469
3.01888
1.05322
1.65733
1.05803
1.66393
2.99167
2.27632
2.99989
2.28226
1.64395
1.04368
1.65053
1.04847
0.819028
0.230869
0.82211
0.232225
0.316606
0.0427958
0.318586
0.0432452
0.0311805
0.0311678
0.0315124
0.0315142
0.00449351
0.00449266
0.0045218
0.00452186
0.230829
0.81887
0.232234
0.822003
0.0427809
0.316576
0.0432495
0.318622
2.27498
2.9897
2.28122
2.99923
1.0436
1.64396
1.04847
1.65071
2.97011
2.26213
2.98011
2.26825
1.63019
1.03387
1.63691
1.03866
0.812701
0.228134
0.81576
0.229507
0.31261
0.0419003
0.314621
0.042351
0.0305206
0.0304908
0.030853
0.0308339
0.00443655
0.00443467
0.00446529
0.00446409
0.227989
0.812299
0.229422
0.815596
0.0418606
0.312436
0.0423255
0.31452
2.2621
2.97049
2.26846
2.9799
1.03343
1.6299
1.03853
1.63691
2.95077
2.24963
2.96043
2.25584
1.61605
1.02371
1.62318
1.0288
0.806206
0.225314
0.809438
0.226731
0.30847
0.0409872
0.310558
0.0414488
0.0298526
0.0298281
0.0301897
0.0301647
0.00437759
0.00437577
0.00440754
0.00440582
0.225251
0.806191
0.226625
0.809133
0.0409556
0.308415
0.0414149
0.310434
2.24958
2.95114
2.25508
2.95991
1.02377
1.61626
1.02845
1.62288
2.93122
2.2369
2.94124
2.24343
1.60173
1.01351
1.6089
1.01859
0.799838
0.222485
0.803024
0.223899
0.30429
0.0400628
0.306377
0.0405264
0.0291809
0.0291527
0.0295182
0.0294992
0.00431639
0.00431459
0.0043473
0.00434582
0.22237
0.799422
0.223857
0.802946
0.0400277
0.304175
0.0405019
0.306355
2.23473
2.92887
2.24235
2.94049
1.01315
1.60149
1.01866
1.60913
2.90918
2.22299
2.91967
2.2295
1.58652
1.00263
1.59428
1.00819
0.793005
0.219506
0.796472
0.221028
0.299883
0.0391097
0.30214
0.0395938
0.0284899
0.0284589
0.028841
0.0288124
0.0042527
0.00425095
0.00428501
0.00428335
0.219333
0.792262
0.220877
0.795864
0.0390714
0.29969
0.039557
0.301964
2.21985
2.90544
2.227
2.91683
1.0018
1.58554
1.00751
1.59356
2.88519
2.20742
2.89743
2.21518
1.57044
0.991204
1.57847
0.996889
0.785821
0.216445
0.78939
0.217973
0.295352
0.0381468
0.297615
0.0386283
0.0277951
0.0277686
0.0281424
0.0281183
0.00418701
0.00418578
0.00422012
0.00421891
0.216267
0.785058
0.217811
0.788622
0.0381169
0.295151
0.0385997
0.297432
2.20522
2.88258
2.21233
2.89367
0.990257
1.56928
0.995958
1.57729
2.86041
2.19191
2.87232
2.19927
1.55409
0.979635
1.56215
0.985306
0.778603
0.213406
0.782131
0.214916
0.290839
0.037196
0.293085
0.0376713
0.027113
0.0270825
0.0274536
0.02743
0.00411994
0.00411865
0.00415374
0.00415278
0.213198
0.777762
0.214741
0.781371
0.0371609
0.290594
0.0376441
0.292881
2.18866
2.85667
2.19661
2.86949
0.978584
1.55287
0.984373
1.56102
2.83483
2.17638
2.84703
2.18349
1.53769
0.968051
1.54586
0.973798
0.77148
0.2104
0.774984
0.211902
0.286344
0.0362537
0.288595
0.0367258
0.0264431
0.0264135
0.0267784
0.026751
0.0040512
0.00404996
0.00408588
0.00408478
0.210226
0.770857
0.211712
0.774208
0.0362204
0.286146
0.0366938
0.288369
2.1742
2.83257
2.18052
2.84328
0.967286
1.53685
0.972819
1.54466
2.8101
2.16171
2.82213
2.16869
1.52105
0.956371
1.52935
0.962164
0.764406
0.207392
0.767899
0.208899
0.281823
0.0353139
0.284089
0.0357857
0.0257794
0.0257534
0.0261125
0.0260888
0.00398056
0.00397951
0.00401624
0.00401532
0.207251
0.763825
0.208758
0.767301
0.0352858
0.281667
0.0357594
0.283929
2.15824
2.80576
2.16535
2.81865
0.955643
1.52028
0.961416
1.52854
2.78459
2.1467
2.7971
2.15393
1.50383
0.9443
1.51249
0.950357
0.757135
0.204275
0.760771
0.205856
0.277128
0.0343469
0.279515
0.0348387
0.0250999
0.0250773
0.0254454
0.0254244
0.00390677
0.00390582
0.00394428
0.00394349
0.204174
0.756912
0.205742
0.760365
0.0343231
0.277023
0.0348161
0.279385
2.1457
2.7831
2.15177
2.79399
0.94401
1.50359
0.949798
1.51187
2.75656
2.12964
2.77083
2.13831
1.48503
0.931064
1.4947
0.937869
0.749086
0.200853
0.753231
0.202617
0.271971
0.0333041
0.274628
0.0338386
0.0243684
0.0243495
0.0247438
0.0247272
0.00382795
0.00382702
0.00386814
0.0038674
0.200789
0.749071
0.202554
0.753187
0.033284
0.271919
0.0338209
0.274569
2.1298
2.7569
2.13825
2.77065
0.931111
1.48529
0.937825
1.49477
2.72455
2.10973
2.74067
2.1197
1.46392
0.916214
1.4747
0.923781
0.739885
0.197034
0.744589
0.19899
0.266253
0.0321782
0.269177
0.0327514
0.023577
0.0235592
0.0239803
0.0239658
0.00374399
0.00374307
0.00378661
0.00378587
0.196972
0.739851
0.198941
0.744588
0.0321589
0.266208
0.0327354
0.269142
2.10984
2.72488
2.11987
2.74103
0.916268
1.4642
0.923853
1.47497
2.68999
2.08809
2.70719
2.09878
1.44122
0.900276
1.45268
0.908313
0.729903
0.192943
0.734938
0.195016
0.260157
0.0310016
0.263244
0.0315957
0.0227501
0.022733
0.0231677
0.0231538
0.00365626
0.0036554
0.00370058
0.00369987
0.192881
0.729861
0.194967
0.734918
0.0309832
0.260112
0.0315803
0.26321
2.08816
2.69028
2.09888
2.70747
0.900324
1.44149
0.908374
1.45294
2.65403
2.06552
2.67185
2.07661
1.41759
0.883705
1.42946
0.892019
0.719496
0.188699
0.724715
0.190837
0.253841
0.0298024
0.257023
0.030405
0.0219095
0.0218932
0.0223319
0.0223186
0.0035659
0.00356511
0.00361142
0.00361077
0.188639
0.719452
0.190789
0.724692
0.029785
0.253798
0.0303905
0.25699
2.06559
2.65431
2.0767
2.6721
0.883753
1.41786
0.892079
1.42971
2.61716
2.04236
2.63539
2.05373
1.39338
0.866737
1.40551
0.875228
0.708825
0.18437
0.714163
0.186545
0.247397
0.028598
0.250635
0.0292014
0.0210683
0.0210526
0.0214896
0.0214769
0.00347372
0.00347298
0.00352006
0.00351945
0.18431
0.708781
0.186497
0.714139
0.0285814
0.247355
0.0291876
0.250603
2.04244
2.61744
2.05381
2.63565
0.866784
1.39365
0.875287
1.40576
2.57968
2.0188
2.59819
2.03034
1.36881
0.849523
1.3811
0.85812
0.697986
0.179995
0.703397
0.182188
0.240885
0.0274009
0.24415
0.0279992
0.0202356
0.0202204
0.0206516
0.0206394
0.00338036
0.00337966
0.00342721
0.00342664
0.179936
0.697941
0.182141
0.703374
0.0273849
0.240843
0.027986
0.244118
2.01887
2.57996
2.03043
2.59844
0.849569
1.36908
0.858178
1.38134
2.54186
1.99497
2.5605
2.00663
1.34406
0.83219
1.35642
0.840832
0.687055
0.17561
0.692504
0.177804
0.234356
0.0262214
0.237623
0.0268097
0.0194185
0.0194038
0.0198258
0.019814
0.00328638
0.00328571
0.00333347
0.00333293
0.175551
0.68701
0.177757
0.692479
0.0262059
0.234314
0.0267968
0.237591
1.99503
2.54214
2.00671
2.56075
0.832233
1.34432
0.840888
1.35666
2.50395
1.97102
2.52261
1.98272
1.31931
0.814846
1.33165
0.82348
0.676107
0.171246
0.681556
0.173425
0.227856
0.0250677
0.231103
0.025642
0.0186229
0.0186087
0.0190188
0.0190073
0.00319226
0.00319162
0.00323935
0.00323884
0.171187
0.67606
0.173379
0.681529
0.0250527
0.227814
0.0256296
0.231071
1.97108
2.50422
1.9828
2.52286
0.814887
1.31956
0.823533
1.33188
2.46619
1.94712
2.48475
1.95876
1.29469
0.797602
1.30694
0.806173
0.665212
0.16693
0.670626
0.169082
0.221428
0.0239468
0.224634
0.0245038
0.0178536
0.0178398
0.0182358
0.0182246
0.00309845
0.00309785
0.00314533
0.00314484
0.166872
0.665164
0.169036
0.670599
0.0239323
0.221386
0.0244918
0.224601
1.94718
2.46646
1.95884
2.485
0.797641
1.29495
0.806223
1.30718
2.42874
1.92344
2.44713
1.93498
1.27036
0.780582
1.28246
0.789024
0.654417
0.162687
0.659778
0.1648
0.215109
0.0228645
0.218256
0.0234015
0.0171145
0.0171011
0.017481
0.0174702
0.00300536
0.0030048
0.00305183
0.00305137
0.162629
0.654369
0.164754
0.65975
0.0228505
0.215067
0.0233899
0.218223
1.92349
2.42901
1.93505
2.44737
0.780619
1.27061
0.789072
1.28269
2.39176
1.89993
2.4099
1.91138
1.24642
0.763886
1.25831
0.772159
0.643758
0.158538
0.649048
0.160601
0.208934
0.0218259
0.212005
0.0223405
0.0164089
0.016396
0.0167582
0.0167478
0.00291341
0.00291288
0.00295926
0.00295882
0.158481
0.643708
0.160555
0.649018
0.0218125
0.208893
0.0223292
0.211972
1.89998
2.39202
1.91145
2.41014
0.763921
1.24667
0.772205
1.25854
2.35525
1.87657
2.37318
1.88796
1.22284
0.747513
1.23457
0.755636
0.633227
0.154493
0.638462
0.156505
0.202917
0.0208346
0.20591
0.0213252
0.0157391
0.0157266
0.0160704
0.0160603
0.00282297
0.00282247
0.00286802
0.0028676
0.154437
0.633177
0.15646
0.638431
0.0208216
0.202876
0.0213144
0.205877
1.87662
2.35551
1.88803
2.37342
0.747546
1.22308
0.75568
1.2348
2.31831
1.85275
2.33668
1.86453
1.19889
0.731102
1.21099
0.739336
0.622537
0.150488
0.627925
0.152499
0.196974
0.0198855
0.199954
0.0203568
0.0151001
0.015088
0.0154175
0.0154077
0.00273427
0.00273379
0.00277844
0.00277805
0.150432
0.622487
0.152454
0.627893
0.019873
0.196933
0.0203463
0.199921
1.8528
2.31857
1.86459
2.33691
0.731133
1.19913
0.739377
1.21121
2.2771
1.82561
2.29843
1.8397
1.1714
0.712947
1.18595
0.722426
0.610233
0.146104
0.616759
0.148403
0.190571
0.0189317
0.193906
0.019417
0.0144512
0.0144397
0.0147836
0.0147741
0.00264668
0.00264623
0.00269049
0.00269012
0.14605
0.610183
0.148358
0.616727
0.0189198
0.190531
0.0194068
0.193873
1.82565
2.27735
1.83976
2.29866
0.712978
1.17163
0.722466
1.18617
2.21887
1.78225
2.2512
1.80747
1.13025
0.68707
1.15355
0.701646
0.590252
0.139515
0.60197
0.143318
0.181469
0.0177422
0.186635
0.0183968
0.0135955
0.0135848
0.0140753
0.0140663
0.00255535
0.00255494
0.00260219
0.00260184
0.139462
0.590203
0.143274
0.601937
0.0177311
0.18143
0.0183872
0.186603
1.78229
2.21912
1.80753
2.25142
0.687101
1.13048
0.701685
1.15377
2.10861
1.64206
2.17455
1.73825
1.04783
0.623455
1.09775
0.665007
0.536161
0.124292
0.571042
0.133696
0.161691
0.0155115
0.173881
0.0168457
0.0118526
0.0118427
0.0129075
0.0128991
0.0024395
0.00243914
0.00250306
0.00250274
0.124236
0.536097
0.133652
0.571007
0.015501
0.161648
0.0168366
0.173848
1.64208
2.10888
1.7383
2.17478
0.623476
1.04807
0.665044
1.09796
0.624488
0.549378
0.0739774
0.0828598
0.563762
0.496034
0.068926
0.0743591
0.055466
0.00597742
0.00816308
0.0053149
0.0463147
0.00561907
0.00787765
0.00534399
0.00377461
0.00377472
0.00577598
0.00577595
0.00386024
0.00386032
0.00580229
0.00580228
0.00597696
0.0554557
0.00531489
0.00816279
0.00561879
0.0463072
0.005344
0.00787743
0.549313
0.62439
0.0828524
0.0739663
0.495982
0.563691
0.074353
0.0689185
2.71767
2.04079
1.82605
1.38558
2.49161
1.86826
1.66555
1.26719
0.637485
0.113783
0.286201
0.0271421
0.550107
0.0878034
0.241018
0.0210302
0.00834155
0.00833902
0.00351799
0.00351762
0.00629621
0.006295
0.00325074
0.00325052
0.113759
0.637442
0.0271362
0.28617
0.0877891
0.550079
0.0210267
0.240996
2.04076
2.71769
1.38553
1.82598
1.86824
2.49161
1.26714
1.66548
3.66309
2.78576
3.29825
2.49158
3.3592
2.54564
3.02584
2.27919
1.09624
0.344785
0.907618
0.243766
0.951459
0.277795
0.787092
0.194258
0.0583711
0.0583427
0.0274544
0.0274456
0.040674
0.0406603
0.0191045
0.0191009
0.344716
1.09619
0.243728
0.907584
0.277756
0.95144
0.194239
0.787078
2.78582
3.66331
2.4916
3.29836
2.5457
3.35936
2.27921
3.02591
4.01411
3.07742
3.88399
2.96821
3.67597
2.80661
3.55926
2.70951
1.29319
0.45625
1.21846
0.413484
1.12075
0.369135
1.05699
0.334356
0.101984
0.101932
0.0842133
0.0841793
0.0711519
0.0711242
0.0587908
0.0587755
0.456156
1.29315
0.413418
1.21844
0.369081
1.12074
0.334322
1.05699
3.07756
4.01451
2.96833
3.88427
2.80674
3.67625
2.70961
3.55945
4.12053
3.16826
4.0849
3.13757
3.76986
2.88596
3.73866
2.85937
1.35699
0.492825
1.33535
0.480507
1.17404
0.398116
1.15616
0.388501
0.117618
0.117561
0.112418
0.112373
0.0817327
0.0817019
0.0782771
0.0782549
0.492728
1.35697
0.480435
1.33535
0.398063
1.17405
0.388466
1.15619
3.16846
4.12103
3.13776
4.08532
2.88613
3.77022
2.85954
3.73896
4.13334
3.18
4.13349
3.1797
3.78069
2.89565
3.78092
2.89557
1.36697
0.498636
1.36579
0.497825
1.18191
0.402393
1.18107
0.401856
0.119841
0.119777
0.119591
0.11954
0.0830868
0.0830482
0.0829674
0.0829389
0.498526
1.36695
0.497743
1.3658
0.402316
1.18191
0.401809
1.18109
3.1801
4.13388
3.17993
4.13402
2.89585
3.78113
2.89576
3.78126
4.11282
3.16389
4.12616
3.17456
3.76215
2.8811
3.77425
2.89068
1.35943
0.495209
1.36483
0.497774
1.17543
0.399524
1.18004
0.401641
0.118282
0.11821
0.119443
0.119381
0.0819274
0.081875
0.0827707
0.0827305
0.495109
1.3595
0.497682
1.36487
0.399409
1.17541
0.401561
1.18005
3.16343
4.11281
3.17449
4.12653
2.88114
3.7626
2.8909
3.77473
4.07962
3.13812
4.09592
3.15051
3.73388
2.85917
3.74784
2.86989
1.34665
0.489219
1.3529
0.492174
1.16476
0.394711
1.17001
0.397085
0.115811
0.115765
0.117027
0.116975
0.080202
0.0801799
0.0810476
0.0810142
0.489216
1.34708
0.492147
1.35321
0.394681
1.16489
0.397016
1.17002
3.13867
4.07997
3.15006
4.09548
2.85904
3.73389
2.86942
3.74753
4.0534
3.11824
4.06554
3.12754
3.70995
2.84152
3.72033
2.84915
1.33609
0.484075
1.34115
0.486556
1.15557
0.390475
1.15992
0.392518
0.113646
0.113609
0.114703
0.114682
0.0786755
0.0786806
0.0794189
0.0794252
0.484073
1.33659
0.48661
1.34171
0.390531
1.15576
0.392564
1.16014
3.12032
4.05633
3.1295
4.06773
2.84072
3.70901
2.84899
3.72044
4.02883
3.09991
4.04033
3.10827
3.6885
2.82488
3.69917
2.83307
1.32676
0.479432
1.33125
0.481737
1.14737
0.386611
1.15134
0.388515
0.11166
0.111595
0.112656
0.112616
0.0772623
0.0772592
0.0779667
0.077979
0.479288
1.32677
0.481689
1.33155
0.38664
1.14759
0.388601
1.15168
3.10068
4.03006
3.10963
4.04239
2.82539
3.68871
2.83333
3.69909
4.00527
3.08246
4.01682
3.09097
3.66528
2.80846
3.6759
2.81565
1.31746
0.474776
1.32208
0.47711
1.1395
0.382811
1.14331
0.384701
0.109681
0.109629
0.11068
0.110635
0.0758638
0.0758564
0.0765649
0.0765714
0.474691
1.31761
0.477021
1.32219
0.382817
1.13966
0.384749
1.14359
3.08358
4.0073
3.09207
4.01843
2.8103
3.66774
2.81729
3.67748
3.98135
3.06481
3.9937
3.07384
3.64473
2.79362
3.65572
2.80157
1.30829
0.470164
1.31295
0.472496
1.13165
0.378993
1.13568
0.380927
0.107719
0.107673
0.108709
0.10867
0.0744662
0.0744636
0.075171
0.075169
0.469997
1.30791
0.472382
1.31274
0.378952
1.13149
0.380905
1.13558
3.06423
3.98068
3.07328
3.99343
2.79444
3.64619
2.80224
3.65679
3.95669
3.04721
3.96832
3.05545
3.62394
2.7789
3.6335
2.78583
1.29895
0.465536
1.30351
0.467851
1.12357
0.37512
1.12752
0.377043
0.105783
0.105749
0.106758
0.106734
0.0730772
0.073082
0.0737721
0.0737863
0.465381
1.29865
0.467727
1.30325
0.375066
1.12316
0.377019
1.12721
3.04782
3.95727
3.05534
3.96794
2.77808
3.62246
2.78518
3.63316
3.93262
3.03071
3.9434
3.0379
3.60059
2.76328
3.61083
2.76962
1.28974
0.460904
1.29424
0.463232
1.11541
0.371233
1.11939
0.373167
0.103872
0.103816
0.104834
0.104804
0.0717014
0.0716857
0.0723883
0.0723966
0.460727
1.28938
0.463093
1.29404
0.371187
1.11528
0.373159
1.11923
3.03049
3.93351
3.03918
3.9455
2.7642
3.60244
2.77097
3.61208
3.90896
3.01377
3.92118
3.02248
3.57948
2.7484
3.59038
2.75606
1.28031
0.456173
1.28513
0.458575
1.1072
0.367336
1.11125
0.369289
0.101962
0.101877
0.10293
0.102872
0.0703369
0.0702874
0.0710232
0.0709969
0.455923
1.27956
0.458393
1.28454
0.367145
1.10669
0.369182
1.11097
3.01135
3.90603
3.02052
3.91942
2.74725
3.5785
2.75559
3.59042
3.88142
2.9946
3.8945
3.00356
3.55466
2.73161
3.56662
2.73954
1.27034
0.451371
1.27523
0.45377
1.09861
0.363343
1.10283
0.365332
0.100054
0.0999599
0.101015
0.100935
0.0689659
0.0689243
0.069654
0.0696158
0.451127
1.26983
0.453549
1.2747
0.363293
1.09872
0.365232
1.10265
2.99365
3.88038
3.00234
3.89287
2.73102
3.55428
2.73856
3.56571
3.85381
2.97613
3.86679
2.98455
3.53035
2.71521
3.54253
2.72335
1.26064
0.446608
1.26546
0.449019
1.09039
0.35941
1.09445
0.361382
0.0981482
0.0980579
0.0991153
0.0990333
0.0675965
0.0675402
0.0682862
0.0682491
0.446363
1.26007
0.448788
1.26492
0.359232
1.08992
0.361314
1.09442
2.97444
3.8526
2.98385
3.86638
2.71291
3.5278
2.72212
3.54131
3.82552
2.95683
3.83992
2.96653
3.50289
2.69689
3.51665
2.70599
1.25042
0.441611
1.25557
0.444147
1.08146
0.355225
1.08601
0.357355
0.0961953
0.0961199
0.0971851
0.0971139
0.0661824
0.0661282
0.066898
0.0668478
0.441419
1.24995
0.443956
1.2551
0.355041
1.08095
0.357167
1.08542
2.95461
3.82308
2.96429
3.83759
2.69453
3.49982
2.70332
3.51339
3.79517
2.93612
3.81044
2.94659
3.47404
2.67815
3.4877
2.68685
1.23976
0.436511
1.24514
0.439077
1.07207
0.350916
1.07668
0.353065
0.0942496
0.0941889
0.0952273
0.0951749
0.0647633
0.0647217
0.0654727
0.0654358
0.436383
1.23947
0.43896
1.24482
0.350801
1.07189
0.35295
1.07643
2.93478
3.79318
2.94447
3.80779
2.67691
3.47263
2.68549
3.4859
3.76121
2.9135
3.77789
2.92432
3.44467
2.65888
3.45937
2.66842
1.22893
0.431424
1.2343
0.433973
1.06262
0.346622
1.06733
0.348762
0.092339
0.0922723
0.0932985
0.0932474
0.0633674
0.0633176
0.0640642
0.0640285
0.431297
1.22881
0.433866
1.23409
0.346481
1.06243
0.348649
1.06709
2.91392
3.76166
2.92399
3.77712
2.65824
3.44367
2.66703
3.45749
3.7287
2.89287
3.74391
2.90235
3.41399
2.63932
3.42896
2.64868
1.21825
0.426399
1.22351
0.428907
1.05329
0.342388
1.05788
0.344495
0.0904739
0.0904086
0.0914078
0.0913527
0.062002
0.0619544
0.0626832
0.0626407
0.426341
1.21855
0.428838
1.22364
0.342319
1.05346
0.344393
1.05784
2.89431
3.73107
2.90362
3.74565
2.6397
3.41454
2.64848
3.42862
3.69664
2.87212
3.71268
2.88237
3.38356
2.62071
3.39797
2.62928
1.20769
0.421439
1.21296
0.423931
1.04402
0.338164
1.04858
0.340276
0.0886483
0.0885874
0.0895676
0.0895163
0.060654
0.0606152
0.0613299
0.061296
0.421411
1.20813
0.423919
1.21337
0.338174
1.04446
0.340278
1.04897
2.87385
3.69892
2.88354
3.71444
2.62119
3.38444
2.63
3.39903
3.66338
2.85121
3.6793
2.86106
3.35364
2.60254
3.36795
2.61106
1.19693
0.416366
1.20229
0.418935
1.03457
0.333822
1.03924
0.336006
0.08679
0.0867314
0.0877366
0.0876896
0.0592754
0.0592425
0.059974
0.0599476
0.41633
1.19728
0.418936
1.20275
0.333855
1.03509
0.336059
1.03977
2.85253
3.66561
2.86288
3.68189
2.60321
3.35449
2.61147
3.36849
3.62872
2.82919
3.646
2.84005
3.32131
2.58243
3.33735
2.59226
1.18548
0.410906
1.1913
0.413717
1.02456
0.329158
1.02962
0.331545
0.0847918
0.0847309
0.0858233
0.0857761
0.0577959
0.0577621
0.058555
0.0585315
0.410828
1.18562
0.413691
1.19159
0.329139
1.02485
0.331586
1.03009
2.82968
3.62964
2.8408
3.64734
2.58311
3.3222
2.59293
3.33815
3.58895
2.80343
3.60916
2.81646
3.28495
2.55916
3.30341
2.57095
1.17241
0.40474
1.17916
0.40793
1.01309
0.323897
1.019
0.326605
0.0825815
0.0825165
0.0837201
0.0836685
0.0561716
0.0561347
0.0570027
0.0569754
0.40462
1.1724
0.407854
1.17925
0.323823
1.01311
0.326572
1.01916
2.8037
3.58962
2.81691
3.60993
2.55945
3.28553
2.57149
3.30418
3.54482
2.77456
3.56685
2.78889
3.2444
2.53296
3.26458
2.54591
1.15785
0.397958
1.16524
0.401418
1.00028
0.318145
1.00675
0.321063
0.0802103
0.0801445
0.0814176
0.0813633
0.0544456
0.0544087
0.0553192
0.0552905
0.397825
1.15779
0.401315
1.16523
0.318061
1.00025
0.321003
1.00676
2.77471
3.54533
2.7891
3.56736
2.53309
3.24477
2.5461
3.26498
3.49854
2.74418
3.52148
2.75914
3.2019
2.50547
3.2229
2.51895
1.14251
0.390834
1.15023
0.394439
0.986834
0.312132
0.99357
0.315161
0.0777602
0.0776953
0.0789984
0.0789444
0.0526729
0.0526369
0.0535646
0.0535363
0.3907
1.14244
0.394331
1.1502
0.312047
0.986793
0.315096
0.993561
2.74431
3.49902
2.7593
3.52191
2.50558
3.20226
2.51909
3.22322
3.45097
2.71291
3.47449
2.72827
3.15827
2.47723
3.17979
2.49105
1.12672
0.383516
1.13464
0.387205
0.973017
0.305969
0.979919
0.309063
0.0752799
0.0752162
0.0765286
0.0764754
0.0508851
0.05085
0.0517813
0.0517538
0.383382
1.12664
0.387097
1.1346
0.305884
0.972975
0.308999
0.979908
2.71303
3.45145
2.72843
3.47492
2.47734
3.15862
2.49118
3.1801
3.40253
2.68103
3.42644
2.69667
3.11387
2.44848
3.13573
2.46253
1.11063
0.376083
1.11869
0.379822
0.958962
0.299719
0.965971
0.30285
0.0727981
0.0727355
0.0740443
0.0739921
0.0491021
0.0490677
0.0499937
0.0499667
0.37595
1.11056
0.379713
1.11864
0.299634
0.958918
0.302786
0.965958
2.68115
3.403
2.69682
3.42687
2.44858
3.11421
2.46266
3.13604
3.35354
2.64875
3.37769
2.66457
3.06899
2.4194
3.09106
2.43359
1.09436
0.36859
1.1025
0.372352
0.944762
0.293427
0.951834
0.296574
0.070336
0.0702744
0.0715697
0.0715182
0.0473392
0.0473055
0.0482189
0.0481924
0.368457
1.09429
0.372244
1.10246
0.293342
0.944717
0.29651
0.951819
2.64887
3.354
2.66471
3.37811
2.4195
3.06933
2.43372
3.09136
3.30429
2.61622
3.32854
2.63214
3.0239
2.39014
3.04604
2.40441
1.07801
0.361084
1.08618
0.364847
0.930497
0.287135
0.937594
0.290277
0.0679111
0.0678506
0.0691238
0.0690732
0.0456094
0.0455762
0.0464709
0.0464449
0.360951
1.07793
0.364738
1.08613
0.28705
0.93045
0.290212
0.937576
2.61634
3.30475
2.63228
3.32896
2.39024
3.02424
2.40453
3.04635
3.25506
2.58359
3.27927
2.59955
2.97885
2.36079
3.00094
2.37511
1.06164
0.353611
1.06981
0.357351
0.916228
0.28088
0.92332
0.283999
0.0655389
0.0654794
0.0667231
0.0666733
0.0439238
0.0438913
0.0447618
0.0447362
0.353478
1.06156
0.357242
1.06976
0.280795
0.916179
0.283933
0.9233
2.5837
3.25551
2.59969
3.27968
2.36088
2.97918
2.37523
3.00124
3.20617
2.551
3.23018
2.56692
2.93418
2.33141
2.95604
2.34571
1.04536
0.346216
1.05347
0.349912
0.902053
0.274705
0.909084
0.277779
0.0632331
0.0631747
0.0643823
0.0643333
0.0422924
0.0422606
0.0431021
0.043077
0.346084
1.04528
0.349803
1.05342
0.27462
0.902002
0.277713
0.909063
2.55111
3.20662
2.56705
3.23058
2.3315
2.93451
2.34582
2.95634
3.15782
2.51861
3.18154
2.53443
2.89008
2.3023
2.91165
2.31645
1.02923
0.338934
1.03727
0.342571
0.888044
0.268641
0.894991
0.271657
0.0610048
0.0609474
0.0621138
0.0620657
0.040723
0.0406919
0.0415008
0.0414761
0.338802
1.02915
0.342461
1.03721
0.268555
0.887992
0.27159
0.894967
2.51871
3.15825
2.53455
3.18194
2.30239
2.8904
2.31656
2.91195
3.10989
2.4863
3.13346
2.50212
2.84646
2.27336
2.86783
2.28747
1.01316
0.331744
1.0212
0.335344
0.874144
0.262683
0.881059
0.265651
0.0588557
0.0587995
0.059926
0.0598787
0.0392188
0.0391883
0.0399643
0.03994
0.331612
1.01308
0.335234
1.02114
0.262598
0.87409
0.265584
0.881033
2.48639
3.11032
2.50224
3.13385
2.27345
2.84678
2.28758
2.86812
3.06095
2.45289
3.08537
2.46953
2.80216
2.24365
2.82416
2.25837
0.996421
0.324371
1.00497
0.328131
0.859818
0.25666
0.867075
0.259706
0.0567378
0.0566827
0.0578053
0.0577588
0.0377566
0.0377267
0.0384876
0.0384638
0.324241
0.996334
0.328022
1.00491
0.256576
0.859763
0.259639
0.867047
2.45298
3.06137
2.46965
3.08575
2.24373
2.80247
2.25847
2.82444
3.00511
2.41345
3.03424
2.43421
2.75221
2.2091
2.77811
2.22715
0.975877
0.315514
0.987005
0.320304
0.842657
0.249672
0.851867
0.253404
0.0543793
0.054326
0.0556292
0.0555838
0.0361872
0.0361583
0.0370069
0.0369837
0.315386
0.97579
0.320196
0.986948
0.249588
0.842601
0.253338
0.851838
2.41353
3.00551
2.43432
3.03462
2.20917
2.75252
2.22725
2.77839
2.92274
2.34686
2.96902
2.38605
2.67973
2.15175
2.72026
2.18538
0.939851
0.300484
0.961232
0.309321
0.813207
0.238224
0.83063
0.244923
0.0507402
0.05069
0.0528428
0.0527992
0.0338838
0.0338566
0.0352034
0.035181
0.30036
0.939765
0.309215
0.961174
0.238143
0.813152
0.244857
0.8306
2.34694
2.92314
2.38615
2.96939
2.15182
2.68003
2.18547
2.72054
2.7554
2.13595
2.85696
2.27867
2.53391
1.96726
2.62239
2.09282
0.845509
0.266608
0.905111
0.287029
0.734533
0.211939
0.784627
0.227929
0.0433056
0.0432555
0.0476859
0.0476444
0.0291167
0.0290897
0.0319557
0.0319343
0.266466
0.845396
0.286922
0.905046
0.211845
0.734452
0.227862
0.78459
2.136
2.75583
2.27876
2.85733
1.9673
2.53425
2.0929
2.62267
0.646217
0.565277
0.0752234
0.0834321
0.642733
0.558715
0.0752934
0.0818892
0.0585629
0.00612619
0.00820439
0.00532922
0.057298
0.00607633
0.00815647
0.0053385
0.00375842
0.00375858
0.00579353
0.00579349
0.00377575
0.00377588
0.00580448
0.00580445
0.00612546
0.0585471
0.00532921
0.00820393
0.00607576
0.0572852
0.00533849
0.0081561
0.565181
0.646089
0.0834206
0.0752078
0.558633
0.642616
0.0818798
0.0752797
2.8636
2.15425
1.91286
1.45306
2.81845
2.1181
1.88932
1.43251
0.697491
0.13159
0.311297
0.0306818
0.678538
0.126048
0.303437
0.0295566
0.00985525
0.00985134
0.00367986
0.0036793
0.00938685
0.00938415
0.00363455
0.00363414
0.131556
0.697436
0.0306731
0.311254
0.126023
0.678498
0.02955
0.303403
2.15422
2.86364
1.45298
1.91275
2.11808
2.81846
1.43245
1.88922
3.8868
2.96508
3.4888
2.64238
3.81227
2.90481
3.42694
2.59275
1.20971
0.398897
0.997441
0.281582
1.17174
0.380912
0.968124
0.269415
0.0736652
0.0736248
0.0342125
0.0341993
0.0686257
0.0685964
0.0320713
0.0320631
0.398809
1.20966
0.281531
0.997399
0.380848
1.17171
0.269382
0.968102
2.96517
3.88709
2.64241
3.48894
2.90489
3.8125
2.59279
3.42704
4.27777
3.29183
4.13141
3.16828
4.18746
3.21795
4.04756
3.10001
1.43629
0.531115
1.34944
0.47984
1.38705
0.505388
1.30486
0.457328
0.130493
0.130423
0.107083
0.107036
0.120699
0.120647
0.0993519
0.0993194
0.530999
1.43626
0.479757
1.34943
0.505307
1.38705
0.457274
1.30487
3.29202
4.27828
3.16844
4.13177
3.21814
4.18787
3.10016
4.04784
4.40059
3.39725
4.35888
3.36115
4.30354
3.31747
4.26431
3.28354
1.51243
0.576268
1.48624
0.560812
1.45828
0.547192
1.4339
0.532966
0.151806
0.151727
0.144567
0.144506
0.139857
0.139802
0.133399
0.133358
0.57614
1.51241
0.560721
1.48625
0.547109
1.4583
0.532913
1.43394
3.3975
4.40122
3.3614
4.35941
3.31771
4.30406
3.28379
4.26474
4.41732
3.41253
4.4166
3.41142
4.31843
3.33117
4.31815
3.33042
1.52552
0.584205
1.52359
0.58287
1.47005
0.554261
1.46843
0.553135
0.155231