/*--------------------------------*- C++ -*----------------------------------*\
  =========                 |
  \\      /  F ield         | OpenFOAM: The Open Source CFD Toolbox
   \\    /   O peration     | Website:  https://openfoam.org
    \\  /    A nd           | Version:  9
     \\/     M anipulation  |
\*---------------------------------------------------------------------------*/
FoamFile
{
    format      ascii;
    class       volScalarField;
    location    "0.5";
    object      k;
}
// * * * * * * * * * * * * * * * * * * * * * * * * * * * * * * * * * * * * * //

dimensions      [0 2 -2 0 0 0 0];

internalField   nonuniform List<scalar> 
36360
(
0.0846129
0.0763596
0.0134013
0.0148932
0.0114375
0.00848888
0.00433539
0.00381907
0.0102251
0.00294416
0.00377002
0.00318837
0.003538
0.00307939
0.00341093
0.00349391
0.00262301
0.00262301
0.00326084
0.00326084
0.00306895
0.00306895
0.0035012
0.0035012
0.00294411
0.0102244
0.00318838
0.00377
0.00307939
0.00353797
0.00349391
0.00341093
0.0763554
0.0846059
0.0148929
0.0134007
0.00848832
0.0114367
0.00381906
0.00433539
0.253206
0.196642
0.18801
0.148315
0.0595809
0.0387796
0.0352666
0.0234722
0.058604
0.00802474
0.0329259
0.00416321
0.00896389
0.00290028
0.00506049
0.00284424
0.00219841
0.00219838
0.00226199
0.00226197
0.002573
0.002573
0.00274742
0.00274742
0.00802375
0.0585991
0.00416277
0.0329217
0.00290025
0.00896339
0.00284421
0.00506009
0.196635
0.253202
0.148308
0.188002
0.0387778
0.0595762
0.0234699
0.0352638
0.306809
0.23845
0.288977
0.224225
0.0801699
0.0534287
0.0733873
0.0484161
0.0828964
0.0141162
0.0745007
0.0118817
0.0139844
0.00316627
0.0121953
0.00304239
0.00234807
0.0023479
0.00226648
0.00226641
0.00247666
0.00247665
0.00250062
0.00250062
0.0141136
0.08289
0.0118804
0.0744974
0.00316612
0.0139832
0.00304234
0.0121947
0.23845
0.306824
0.224225
0.288987
0.0534285
0.0801743
0.0484158
0.0733843
0.317653
0.24735
0.314672
0.244881
0.0840139
0.0563788
0.0830344
0.0556184
0.0880979
0.0154921
0.086688
0.0151373
0.0150543
0.00324488
0.0147815
0.00322535
0.0024062
0.00240576
0.00239122
0.00239103
0.00246819
0.00246818
0.00247003
0.00247002
0.0154856
0.088084
0.0151346
0.0866818
0.00324443
0.0150506
0.00322517
0.0147803
0.247346
0.317671
0.24488
0.314682
0.0563751
0.084016
0.0556182
0.0830373
0.318204
0.24779
0.31837
0.247936
0.0841026
0.056416
0.0841879
0.0565005
0.0883728
0.0155351
0.0884381
0.0155607
0.0150823
0.00324454
0.0151048
0.00324753
0.00240644
0.00240582
0.0024084
0.00240791
0.00246661
0.00246658
0.00246736
0.00246735
0.0155256
0.0883537
0.0155532
0.0884233
0.00324379
0.0150755
0.00324696
0.0150997
0.24777
0.318222
0.247935
0.318394
0.0564061
0.0840986
0.0564941
0.0841867
0.316544
0.246373
0.317503
0.247175
0.0834536
0.0558563
0.0838036
0.0561491
0.0876043
0.0153065
0.0880388
0.0154308
0.0148921
0.00322591
0.0149939
0.00323551
0.00239347
0.00239282
0.00240022
0.00239972
0.00246471
0.00246468
0.0024657
0.00246568
0.0152951
0.087575
0.0154227
0.0880252
0.00322502
0.0148827
0.00323489
0.0149878
0.246265
0.316456
0.247133
0.317493
0.0558389
0.0834427
0.0561436
0.0838022
0.314777
0.24492
0.315659
0.245643
0.0828254
0.0553317
0.0831414
0.0555948
0.0868137
0.0150828
0.0872095
0.0151935
0.0147064
0.00320772
0.0147989
0.00321671
0.00238111
0.00238098
0.00238716
0.00238667
0.0024625
0.0024625
0.00246364
0.00246362
0.0150826
0.0868255
0.0151854
0.0871912
0.00320773
0.0147085
0.00321598
0.0147916
0.244859
0.31469
0.245542
0.315556
0.05535
0.0828479
0.0555837
0.0831318
0.313254
0.243714
0.313989
0.244286
0.0823103
0.0549165
0.0825507
0.0551104
0.0861499
0.0148863
0.0864671
0.014982
0.0145459
0.00319115
0.0146234
0.00319934
0.00237022
0.00237011
0.00237555
0.00237563
0.00246001
0.00246
0.00246129
0.0024613
0.0148883
0.0861941
0.0149872
0.0865095
0.00319101
0.0145475
0.00319959
0.0146293
0.243925
0.313516
0.244369
0.31404
0.0549438
0.0823548
0.0551446
0.0825937
0.311804
0.242568
0.312525
0.243136
0.0818099
0.0545118
0.0820607
0.0547135
0.0855015
0.0146978
0.0858221
0.0147911
0.0143912
0.00317469
0.0144679
0.00318288
0.00235991
0.00235956
0.00236499
0.0023648
0.00245716
0.00245715
0.00245863
0.00245862
0.0146935
0.0855268
0.0147913
0.0858622
0.00317414
0.014387
0.0031825
0.0144664
0.242703
0.311972
0.24329
0.312747
0.0545278
0.081842
0.0547325
0.0820957
0.310198
0.241331
0.311037
0.241964
0.0813079
0.054109
0.0815648
0.0543131
0.084855
0.0145112
0.0851847
0.0146054
0.0142379
0.00315816
0.0143147
0.00316642
0.00234994
0.00234952
0.00235492
0.00235453
0.00245393
0.00245391
0.0024556
0.00245558
0.0145032
0.0848559
0.0145983
0.0851933
0.00315749
0.0142302
0.00316578
0.0143075
0.241474
0.310454
0.242135
0.311253
0.0541062
0.081322
0.0543158
0.0815812
0.308672
0.240216
0.309364
0.240717
0.0807711
0.0536909
0.081032
0.0538926
0.0841934
0.0143146
0.0845149
0.0144128
0.014074
0.00314018
0.0141556
0.00314921
0.00233949
0.00233961
0.00234471
0.00234463
0.0024502
0.00245021
0.00245212
0.00245212
0.0143165
0.0841989
0.0144116
0.0845244
0.00314051
0.014077
0.00314909
0.0141544
0.240169
0.30861
0.240708
0.309424
0.0537016
0.0807967
0.0539008
0.0810562
0.307132
0.239061
0.307893
0.239622
0.0802416
0.0532785
0.080507
0.053482
0.0835334
0.0141224
0.0838601
0.0142173
0.013915
0.00312252
0.0139932
0.00313129
0.00232956
0.00232977
0.00233445
0.00233478
0.00244598
0.00244599
0.00244816
0.00244817
0.0141276
0.0835653
0.0142236
0.0838861
0.00312291
0.0139205
0.00313186
0.0139994
0.23922
0.307301
0.239721
0.307974
0.0533065
0.0802892
0.0535034
0.0805394
0.305541
0.23796
0.306304
0.238464
0.0797349
0.0528853
0.079986
0.0530838
0.0829111
0.0139358
0.0832244
0.0140297
0.0137581
0.00310421
0.0138371
0.00311341
0.0023198
0.00231957
0.00232466
0.00232469
0.00244119
0.00244119
0.00244366
0.00244366
0.013928
0.0828679
0.0140285
0.0832188
0.00310394
0.0137512
0.00311348
0.0138357
0.238
0.30568
0.238638
0.306531
0.0528545
0.0797148
0.0530793
0.0800037
0.304017
0.236867
0.304822
0.237443
0.0791901
0.0524622
0.079463
0.0526686
0.0822588
0.0137522
0.0825806
0.013842
0.0136015
0.00308593
0.0136774
0.00309492
0.00231059
0.00231022
0.00231507
0.00231487
0.0024358
0.00243579
0.00243857
0.00243857
0.0137428
0.082214
0.0138353
0.0825415
0.00308556
0.0135953
0.00309477
0.0136729
0.236792
0.303974
0.237376
0.304797
0.0524406
0.0791772
0.052648
0.0794424
0.302421
0.235766
0.303187
0.2363
0.0786474
0.0520462
0.0789216
0.0522591
0.0816185
0.0135729
0.0819433
0.0136637
0.0134483
0.00306738
0.0135261
0.00307681
0.00230172
0.0023012
0.00230619
0.00230574
0.00242972
0.0024297
0.00243285
0.00243283
0.0135605
0.0815515
0.0136526
0.0818841
0.00306678
0.0134397
0.0030762
0.0135168
0.23557
0.302194
0.236137
0.30304
0.0520101
0.0786134
0.0522206
0.0788934
0.300501
0.23446
0.301432
0.235056
0.0780418
0.0515775
0.0783479
0.0518088
0.0809195
0.0133826
0.0812656
0.0134779
0.0132823
0.00304732
0.0133651
0.00305744
0.00229248
0.00229202
0.00229711
0.00229668
0.00242288
0.00242286
0.0024264
0.00242638
0.0133725
0.0808778
0.0134687
0.0812222
0.00304678
0.0132759
0.00305697
0.0133596
0.234395
0.300468
0.234971
0.301318
0.0515615
0.0780334
0.0517928
0.0783277
0.298817
0.23331
0.299701
0.233925
0.0774548
0.0511281
0.0777436
0.0513525
0.0802456
0.0131964
0.0805838
0.0132889
0.0131202
0.00302683
0.0132005
0.00303709
0.00228354
0.00228312
0.00228797
0.00228759
0.00241522
0.00241521
0.00241915
0.00241914
0.0131871
0.0802001
0.0132802
0.0805402
0.00302634
0.013114
0.00303664
0.0131944
0.23313
0.298622
0.233784
0.299589
0.0511083
0.0774415
0.0513319
0.0777331
0.296812
0.231992
0.297778
0.232601
0.076846
0.0506593
0.0771479
0.0508885
0.0795531
0.0130108
0.0798921
0.013103
0.0129561
0.00300553
0.0130375
0.00301624
0.00227475
0.00227447
0.00227912
0.00227881
0.0024067
0.00240669
0.00241107
0.00241106
0.0130044
0.0795206
0.0130956
0.0798506
0.00300524
0.012952
0.00301586
0.0130319
0.231913
0.296745
0.232472
0.297618
0.0506434
0.0768358
0.0508656
0.0771274
0.294924
0.230779
0.295862
0.231374
0.0762349
0.0501899
0.0765388
0.0504216
0.0788724
0.0128256
0.07921
0.0129178
0.0127902
0.00298324
0.0128725
0.00299442
0.00226605
0.00226593
0.00227037
0.00227028
0.00239724
0.00239724
0.00240209
0.00240209
0.0128219
0.0788437
0.0129154
0.0791912
0.00298322
0.0127884
0.00299443
0.0128717
0.230648
0.294795
0.231275
0.295779
0.0501744
0.0762273
0.0504141
0.0765383
0.292983
0.229562
0.293939
0.23015
0.0756135
0.0497144
0.0759257
0.0499517
0.078193
0.0126416
0.0785324
0.0127335
0.0126232
0.00296014
0.0127065
0.00297178
0.00225754
0.00225749
0.00226178
0.00226175
0.0023868
0.0023868
0.00239214
0.00239215
0.0126403
0.0781753
0.0127318
0.0785103
0.00296025
0.0126245
0.00297185
0.0127062
0.229438
0.292872
0.230043
0.293831
0.0497127
0.0756151
0.0499409
0.0759176
0.291043
0.22838
0.29199
0.228942
0.0749873
0.0492413
0.0752964
0.0494733
0.0775241
0.0124599
0.0778535
0.0125501
0.0124566
0.00293606
0.0125389
0.00294814
0.00224916
0.00224921
0.00225332
0.0022534
0.00237531
0.00237531
0.00238118
0.00238119
0.012461
0.0775151
0.0125519
0.0778453
0.0029364
0.0124608
0.00294848
0.0125431
0.228249
0.290902
0.228805
0.291847
0.0492483
0.0749998
0.0494791
0.0753047
0.289005
0.227128
0.29004
0.227758
0.0743378
0.0487499
0.0746671
0.0489979
0.0768328
0.0122765
0.077183
0.0123691
0.0122874
0.00291104
0.0123727
0.00292369
0.00224087
0.00224086
0.00224503
0.00224514
0.00236274
0.00236274
0.00236916
0.00236917
0.0122768
0.076831
0.0123715
0.0771786
0.00291128
0.0122908
0.0029241
0.0123776
0.227088
0.288945
0.22764
0.28989
0.0487608
0.0743541
0.0490066
0.0746786
0.286706
0.225689
0.287879
0.22642
0.0736175
0.0482039
0.0739867
0.0484829
0.0760624
0.0120799
0.0764578
0.0121804
0.0121053
0.00288438
0.0121983
0.00289795
0.00223225
0.00223207
0.00223663
0.0022366
0.00234903
0.00234903
0.00235603
0.00235603
0.0120766
0.0760545
0.0121804
0.07646
0.00288429
0.0121047
0.00289808
0.0122004
0.225694
0.286734
0.226424
0.287885
0.0482068
0.073629
0.0484929
0.0740027
0.284126
0.224045
0.28544
0.224879
0.0728143
0.047595
0.0732245
0.0479047
0.0752003
0.0118662
0.0756408
0.011975
0.0119064
0.0028557
0.0120075
0.00287027
0.00222307
0.00222282
0.00222772
0.00222756
0.00233416
0.00233415
0.00234174
0.00234174
0.0118615
0.0751863
0.011972
0.0756324
0.00285547
0.0119042
0.00287014
0.0120063
0.224038
0.284145
0.22488
0.285462
0.0475925
0.0728185
0.0479047
0.0732302
0.281336
0.22226
0.28274
0.223152
0.0719519
0.0469457
0.0723876
0.0472725
0.0742771
0.0116416
0.0747434
0.011755
0.0116968
0.00282533
0.0118024
0.0028407
0.00221354
0.00221331
0.00221835
0.00221816
0.00231809
0.00231809
0.00232627
0.00232627
0.011637
0.0742633
0.0117516
0.0747332
0.00282512
0.0116946
0.00284053
0.0118008
0.222252
0.281353
0.223147
0.282753
0.0469432
0.0719558
0.0472707
0.0723905
0.278426
0.220403
0.279883
0.221326
0.0710525
0.0462724
0.0715051
0.04661
0.0733185
0.0114107
0.0738007
0.0115269
0.0114804
0.00279351
0.0115891
0.00280958
0.00220381
0.00220359
0.0022087
0.00220854
0.00230085
0.00230084
0.00230962
0.00230961
0.0114064
0.0733053
0.0115238
0.0737911
0.00279332
0.0114783
0.00280944
0.0115876
0.220396
0.278443
0.221322
0.279897
0.0462702
0.0710568
0.0466086
0.0715084
0.275424
0.218502
0.276925
0.219445
0.0701258
0.0455824
0.070591
0.0459275
0.0723338
0.0111761
0.0728283
0.0112938
0.0112597
0.00276045
0.0113702
0.00277711
0.00219397
0.00219376
0.0021989
0.00219874
0.00228243
0.00228242
0.00229178
0.00229178
0.0111719
0.0723209
0.0112909
0.0728192
0.00276026
0.0112577
0.00277698
0.0113689
0.218495
0.275442
0.219441
0.27694
0.0455804
0.0701303
0.0459264
0.0705946
0.272351
0.216561
0.273885
0.217524
0.0691809
0.0448841
0.0696541
0.0452323
0.0713302
0.0109404
0.0718331
0.0110584
0.0110374
0.00272637
0.0111484
0.00274351
0.00218416
0.00218396
0.00218906
0.00218892
0.00226288
0.00226287
0.00227279
0.00227279
0.0109363
0.0713174
0.0110555
0.0718241
0.0027262
0.0110355
0.00274339
0.0111471
0.216554
0.272369
0.21752
0.273899
0.0448821
0.0691853
0.0452312
0.0696577
0.269231
0.214589
0.270785
0.215565
0.068226
0.0441855
0.0687032
0.0445329
0.0703162
0.010706
0.0708233
0.010823
0.0108156
0.00269147
0.0109262
0.00270901
0.00217447
0.00217427
0.0021793
0.00217916
0.00224222
0.00224222
0.00225268
0.00225268
0.0107019
0.0703034
0.0108202
0.0708143
0.0026913
0.0108137
0.00270889
0.0109249
0.214582
0.269249
0.215562
0.270799
0.0441836
0.0682304
0.0445318
0.0687068
0.266089
0.212601
0.267651
0.213584
0.0672686
0.043494
0.0677461
0.043837
0.0692988
0.0104747
0.0698068
0.0105899
0.0105959
0.00265588
0.0107052
0.00267374
0.00216495
0.00216476
0.00216969
0.00216955
0.00222053
0.00222052
0.0022315
0.00223149
0.0104707
0.069286
0.0105871
0.0697978
0.00265571
0.0105941
0.00267363
0.010704
0.212593
0.266106
0.21358
0.267665
0.043492
0.0672729
0.0438358
0.0677497
0.262944
0.210604
0.264504
0.21159
0.0663157
0.0428168
0.0667902
0.0431517
0.068284
0.0102482
0.06879
0.0103609
0.0103798
0.00261976
0.0104872
0.00263787
0.00215564
0.00215546
0.00216027
0.00216014
0.00219786
0.00219785
0.00220931
0.0022093
0.0102443
0.0682713
0.0103582
0.068781
0.00261959
0.010378
0.00263776
0.010486
0.210597
0.262961
0.211586
0.264519
0.0428147
0.06632
0.0431506
0.0667937
0.259817
0.208607
0.261366
0.209592
0.0653736
0.0421601
0.0658419
0.0424841
0.0672778
0.0100278
0.0677787
0.0101373
0.010168
0.00258319
0.0102732
0.00260151
0.00214655
0.00214638
0.00215108
0.00215095
0.0021743
0.0021743
0.00218618
0.00218618
0.0100239
0.0672651
0.0101346
0.0677697
0.00258303
0.0101662
0.00260141
0.010272
0.2086
0.259835
0.209588
0.26138
0.0421581
0.0653779
0.0424829
0.0658454
0.256734
0.206616
0.258258
0.207598
0.0644488
0.0415295
0.0649077
0.0418399
0.0662879
0.00981475
0.0667795
0.00992033
0.00996126
0.00254631
0.0100638
0.00256477
0.0021377
0.00213753
0.0021421
0.00214198
0.00214995
0.00214995
0.00216222
0.00216221
0.009811
0.0662752
0.00991773
0.0667705
0.00254616
0.00995949
0.00256467
0.0100626
0.206608
0.256751
0.207593
0.258272
0.0415275
0.0644531
0.0418387
0.0649111
0.253716
0.204639
0.255204
0.205611
0.0635476
0.0409318
0.0639939
0.0412251
0.065324
0.00961073
0.0658013
0.00971163
0.00976053
0.0025093
0.00985998
0.00252781
0.00212912
0.00212895
0.00213338
0.00213326
0.00212491
0.00212491
0.00213751
0.00213751
0.00960705
0.0653114
0.00970908
0.0657924
0.00250915
0.00975879
0.0025277
0.00985877
0.204631
0.253733
0.205606
0.255218
0.0409298
0.0635518
0.0412238
0.0639974
0.250783
0.202709
0.252227
0.203652
0.0626755
0.0403574
0.0631066
0.0406409
0.0643954
0.00941692
0.0648542
0.00951258
0.00956656
0.0024723
0.00966252
0.00249078
0.0021208
0.00212064
0.00212493
0.00212482
0.00209931
0.0020993
0.00211217
0.00211217
0.00941331
0.0643828
0.00951009
0.0648452
0.00247216
0.00956484
0.00249068
0.00966132
0.202701
0.250801
0.203647
0.252241
0.0403554
0.0626796
0.0406396
0.06311
0.247937
0.200846
0.24934
0.201756
0.0618353
0.0398039
0.0622504
0.0400767
0.063506
0.00923416
0.063945
0.00932422
0.00938023
0.00243549
0.00947228
0.00245386
0.00211273
0.00211258
0.00211674
0.00211663
0.00207325
0.00207324
0.00208632
0.00208632
0.00923062
0.0634935
0.00932177
0.063936
0.00243535
0.00937852
0.00245376
0.00947109
0.200838
0.247954
0.201752
0.249354
0.0398019
0.0618395
0.0400754
0.0622538
0.245061
0.198982
0.246513
0.199914
0.0610118
0.0392654
0.0614238
0.0395333
0.0626399
0.00906161
0.0630734
0.00914703
0.00920119
0.00239898
0.0092899
0.00241719
0.00210489
0.00210473
0.00210879
0.00210868
0.00204686
0.00204685
0.00206008
0.00206008
0.00905813
0.0626274
0.00914462
0.0630645
0.00239884
0.00919951
0.00241709
0.00928872
0.198974
0.245079
0.19991
0.246527
0.0392634
0.061016
0.0395319
0.0614273
0.241283
0.196359
0.243398
0.197881
0.060034
0.0386247
0.0605687
0.0389782
0.0615318
0.00887159
0.0621637
0.00897424
0.00900919
0.00236227
0.00911077
0.00238076
0.00209673
0.00209658
0.00210095
0.00210085
0.00202026
0.00202026
0.00203358
0.00203357
0.00886821
0.0615194
0.00897188
0.0621547
0.00236214
0.00900754
0.00238067
0.0091096
0.196351
0.2413
0.197876
0.243412
0.0386226
0.0600381
0.0389769
0.0605722
0.233018
0.186939
0.23817
0.193538
0.057829
0.0368184
0.0592595
0.0380417
0.0581004
0.008388
0.0604133
0.00870801
0.00857708
0.00231577
0.00886165
0.00234204
0.00208111
0.00208099
0.00209103
0.00209091
0.00199341
0.00199341
0.00200689
0.00200689
0.00838486
0.0580869
0.00870528
0.0604031
0.00231565
0.00857543
0.00234194
0.00886033
0.186927
0.233038
0.193531
0.238184
0.0368159
0.0578335
0.0380398
0.0592631
0.110493
0.0943074
0.015985
0.0164038
0.105142
0.0889526
0.0155823
0.0154136
0.0137921
0.0031821
0.00385403
0.00312944
0.0126695
0.00311656
0.00381167
0.00314765
0.00260986
0.00260987
0.00325965
0.00325965
0.00261452
0.00261452
0.00326644
0.00326644
0.00318201
0.0137904
0.00312945
0.00385399
0.00311633
0.0126674
0.00314772
0.00381159
0.0942991
0.11048
0.0164029
0.0159836
0.0889435
0.10513
0.015412
0.015581
0.33248
0.257676
0.246115
0.191996
0.310011
0.240212
0.230795
0.180099
0.0887979
0.0140787
0.0495384
0.00587287
0.0799247
0.0122261
0.0447822
0.00535219
0.00240435
0.00240421
0.00227324
0.00227319
0.00233784
0.00233776
0.00226243
0.00226237
0.0140754
0.0887872
0.00587176
0.0495314
0.012224
0.0799186
0.00535113
0.0447758
0.257667
0.332483
0.191987
0.246108
0.240206
0.31001
0.180092
0.230788
0.407535
0.317216
0.381695
0.29644
0.377418
0.293512
0.354479
0.27511
0.126667
0.0269655
0.113309
0.0221532
0.113131
0.022818
0.101544
0.018908
0.00308813
0.00308719
0.00275942
0.00275908
0.00282041
0.0028202
0.00258132
0.00258126
0.0269545
0.126647
0.0221483
0.113297
0.0228146
0.113123
0.0189071
0.10154
0.317208
0.407558
0.296434
0.381706
0.29351
0.377433
0.275111
0.354486
0.424829
0.331227
0.419761
0.327125
0.39231
0.305589
0.388022
0.302111
0.13555
0.0301704
0.133009
0.029287
0.120626
0.0253428
0.11852
0.0246621
0.00332445
0.00332326
0.00325995
0.00325901
0.00298546
0.00298478
0.00294152
0.00294131
0.0301588
0.135533
0.0292771
0.132992
0.0253357
0.120615
0.0246594
0.118514
0.331231
0.424877
0.327123
0.419786
0.305592
0.392334
0.302113
0.388035
0.426077
0.332146
0.426277
0.332342
0.393225
0.306267
0.39344
0.306463
0.136129
0.0303224
0.136211
0.0303661
0.121061
0.0254426
0.121144
0.0254829
0.00333151
0.00333084
0.00333654
0.00333579
0.00298876
0.00298797
0.0029929
0.00299226
0.0303175
0.136127
0.0303609
0.136212
0.0254355
0.121055
0.0254775
0.121142
0.332182
0.426158
0.332364
0.426332
0.306291
0.393282
0.30649
0.393485
0.423662
0.330109
0.425068
0.331282
0.391032
0.304418
0.392295
0.305469
0.134969
0.0298503
0.135644
0.0301162
0.120037
0.0250524
0.120621
0.0252674
0.00328908
0.00328898
0.00331207
0.00331217
0.00295721
0.00295662
0.00297394
0.00297357
0.0298469
0.134946
0.0301174
0.135644
0.0250428
0.120001
0.0252631
0.120612
0.330086
0.423662
0.331315
0.425145
0.304373
0.391008
0.305481
0.392332
0.420832
0.327889
0.422184
0.328917
0.388557
0.302467
0.389757
0.303394
0.133755
0.0293863
0.13435
0.0296134
0.118973
0.0246716
0.1195
0.0248574
0.00324914
0.00324869
0.00326854
0.00326861
0.00292764
0.00292759
0.00294195
0.00294166
0.0293747
0.133698
0.029608
0.134305
0.0246687
0.118958
0.0248506
0.119465
0.327859
0.420846
0.328913
0.422195
0.302436
0.388541
0.303337
0.389708
0.418725
0.326198
0.419729
0.327021
0.386685
0.300987
0.38756
0.301689
0.132633
0.0289457
0.133179
0.0291623
0.118024
0.0243241
0.118483
0.0244946
0.00321184
0.00321221
0.00323021
0.00323044
0.00290095
0.00290171
0.00291406
0.00291467
0.028954
0.13267
0.0291652
0.133188
0.0243372
0.11808
0.0245035
0.118515
0.326285
0.418918
0.327101
0.419868
0.301104
0.386857
0.301748
0.387637
0.416684
0.324571
0.417706
0.32537
0.38489
0.299571
0.385738
0.300226
0.131667
0.0285607
0.132145
0.0287502
0.117163
0.024006
0.117572
0.0241599
0.00317897
0.00317833
0.00319506
0.00319529
0.00287653
0.00287681
0.00288839
0.00288931
0.0285552
0.131674
0.0287552
0.132166
0.0240094
0.117186
0.0241754
0.117638
0.324595
0.416706
0.325328
0.417697
0.299635
0.38498
0.300327
0.385876
0.414507
0.322865
0.415588
0.323699
0.382978
0.298069
0.383999
0.298856
0.130657
0.0281656
0.131159
0.0283645
0.116316
0.0236946
0.116747
0.0238513
0.00314622
0.00314594
0.00316268
0.00316253
0.00285295
0.002853
0.00286474
0.00286494
0.0281686
0.130711
0.0283671
0.131204
0.0236926
0.116329
0.0238506
0.11675
0.323083
0.41482
0.323874
0.415792
0.298227
0.383201
0.298924
0.384076
0.41232
0.321192
0.413418
0.322017
0.381109
0.296676
0.381944
0.297303
0.129663
0.0277751
0.130155
0.0279698
0.115454
0.0233713
0.115874
0.023533
0.00311391
0.00311374
0.00313003
0.00312991
0.00282867
0.00282923
0.00284082
0.00284126
0.0277771
0.129703
0.0279746
0.13021
0.0233746
0.115447
0.0235363
0.115894
0.321356
0.412552
0.322185
0.413661
0.296652
0.381082
0.297403
0.382126
0.410334
0.319678
0.411349
0.320463
0.379117
0.295163
0.380104
0.295891
0.128693
0.0273877
0.129188
0.0275822
0.114565
0.0230485
0.115006
0.0232077
0.00308248
0.00308326
0.00309812
0.00309887
0.00280519
0.00280615
0.00281673
0.00281787
0.0273984
0.128723
0.0275934
0.12923
0.0230604
0.114596
0.0232201
0.115022
0.319809
0.410539
0.320611
0.411553
0.295392
0.379403
0.296034
0.380224
0.408128
0.318031
0.409182
0.318801
0.377096
0.293681
0.378118
0.294416
0.127695
0.0270052
0.128185
0.0271941
0.113706
0.0227403
0.114135
0.0228939
0.00305199
0.00305262
0.00306702
0.00306816
0.00278272
0.00278296
0.00279382
0.00279465
0.027012
0.127707
0.0272085
0.128212
0.0227411
0.113712
0.0229027
0.114157
0.31807
0.408208
0.318885
0.409331
0.293842
0.377366
0.294619
0.378395
0.405993
0.31645
0.407076
0.317236
0.375313
0.292405
0.376171
0.293029
0.126752
0.0266484
0.127223
0.0268255
0.112883
0.0224433
0.113291
0.0225894
0.00302412
0.00302343
0.00303784
0.00303814
0.00276172
0.00276117
0.002772
0.00277198
0.0266379
0.126731
0.0268256
0.127218
0.0224341
0.112842
0.0225863
0.113269
0.316536
0.406154
0.317307
0.407164
0.29224
0.375172
0.293007
0.376239
0.40385
0.31488
0.404894
0.315646
0.373197
0.290892
0.374243
0.291608
0.125799
0.0262966
0.126269
0.026472
0.112033
0.0221517
0.11245
0.0222969
0.00299717
0.00299531
0.00301064
0.00300967
0.00274142
0.00274034
0.00275153
0.002751
0.0262733
0.125756
0.0264613
0.12626
0.0221363
0.111989
0.0222901
0.112428
0.314876
0.403866
0.31567
0.40497
0.290761
0.373066
0.291486
0.374093
0.401466
0.313188
0.40265
0.314006
0.371151
0.289456
0.372176
0.290181
0.12483
0.0259398
0.125327
0.0261214
0.111164
0.0218517
0.111601
0.0220022
0.00297006
0.00296819
0.00298374
0.00298192
0.00272071
0.00271956
0.00273108
0.00272999
0.0259152
0.124786
0.0260974
0.125284
0.0218326
0.111119
0.0219847
0.11155
0.313177
0.401525
0.314066
0.402763
0.289355
0.371023
0.290015
0.371989
0.399189
0.311597
0.400322
0.312382
0.368949
0.287923
0.37005
0.288676
0.123859
0.0255809
0.124344
0.0257605
0.110292
0.02155
0.110727
0.0217
0.00294331
0.00294223
0.00295664
0.00295548
0.00270027
0.00269938
0.00271039
0.0027096
0.025566
0.12383
0.0257447
0.124316
0.0215357
0.110258
0.0216864
0.110699
0.311635
0.399277
0.312393
0.40036
0.287868
0.368928
0.288661
0.370038
0.396761
0.309917
0.397944
0.31071
0.366581
0.286312
0.36775
0.287088
0.122872
0.0252301
0.123348
0.0254024
0.109399
0.0212519
0.109836
0.0213989
0.00291773
0.0029164
0.00293035
0.00292954
0.00268051
0.00267998
0.00269026
0.00268974
0.025212
0.122831
0.025391
0.123327
0.0212442
0.109378
0.0213905
0.109809
0.309859
0.396783
0.310744
0.398045
0.286282
0.366567
0.287007
0.367664
0.394474
0.308377
0.395613
0.309143
0.364307
0.284826
0.365416
0.285541
0.121939
0.024893
0.12241
0.0250618
0.108529
0.0209599
0.108959
0.0211045
0.00289328
0.00289211
0.00290544
0.00290438
0.00266135
0.00266115
0.00267082
0.00267073
0.0248763
0.12188
0.0250464
0.12236
0.0209581
0.108523
0.0211044
0.108955
0.308156
0.394293
0.309001
0.395522
0.284779
0.364278
0.285496
0.365383
0.392081
0.306783
0.393279
0.307568
0.362063
0.283367
0.363161
0.284073
0.121016
0.0245683
0.121477
0.0247297
0.107685
0.0206793
0.108101
0.0208181
0.00287024
0.00286891
0.00288163
0.00288076
0.00264315
0.00264269
0.00265213
0.00265203
0.0245522
0.120971
0.0247178
0.121425
0.0206714
0.107649
0.0208166
0.108092
0.306554
0.391817
0.307298
0.392996
0.283197
0.361904
0.284011
0.363123
0.389535
0.305135
0.390788
0.305925
0.359758
0.281892
0.360885
0.282594
0.120101
0.0242535
0.120553
0.0244101
0.106862
0.0204045
0.107267
0.0205408
0.0028483
0.00284686
0.0028592
0.00285807
0.00262551
0.00262491
0.00263425
0.0026339
0.0242387
0.120085
0.0243983
0.120532
0.020394
0.106824
0.020534
0.107234
0.305104
0.38951
0.305802
0.390619
0.281791
0.359646
0.28245
0.360708
0.387007
0.30354
0.388253
0.304315
0.357368
0.280398
0.35853
0.281109
0.119185
0.0239368
0.119647
0.0240977
0.106005
0.0201241
0.106436
0.0202658
0.00282656
0.0028252
0.00283759
0.00283647
0.002608
0.00260737
0.0026168
0.00261638
0.0239221
0.119175
0.0240871
0.119647
0.0201134
0.105969
0.0202577
0.106402
0.303567
0.387073
0.304328
0.388284
0.280322
0.35731
0.281025
0.358442
0.38424
0.30174
0.385672
0.30267
0.354744
0.278697
0.356095
0.279571
0.118157
0.0235867
0.118692
0.023768
0.105043
0.0198193
0.105538
0.0199754
0.0028031
0.00280187
0.00281518
0.00281416
0.00258957
0.00258887
0.00259895
0.00259846
0.0235715
0.118136
0.0237569
0.118686
0.0198084
0.105015
0.0199673
0.105513
0.301761
0.384319
0.302711
0.38575
0.278659
0.354718
0.279502
0.356028
0.381024
0.299605
0.382676
0.300698
0.351693
0.27669
0.353246
0.277705
0.116973
0.0231979
0.117583
0.023397
0.103954
0.0194855
0.10451
0.0196553
0.00277789
0.00277678
0.00279071
0.00278981
0.00256999
0.00256936
0.00257989
0.00257941
0.0231831
0.116943
0.0233855
0.117563
0.0194762
0.103932
0.0196479
0.104491
0.299595
0.381064
0.300702
0.382723
0.276677
0.351709
0.277689
0.353242
0.377503
0.297261
0.379281
0.298438
0.348379
0.274511
0.350042
0.275596
0.115691
0.0227883
0.116341
0.0229957
0.102782
0.0191339
0.103373
0.0193111
0.00275209
0.00275107
0.00276508
0.00276429
0.0025499
0.00254933
0.00255997
0.00255957
0.0227745
0.115662
0.0229851
0.116319
0.0191256
0.102764
0.0193052
0.10336
0.297249
0.377539
0.29843
0.379309
0.274502
0.348401
0.275591
0.350055
0.373819
0.29481
0.375669
0.296034
0.344911
0.272231
0.346642
0.273362
0.114357
0.0223685
0.11503
0.0225803
0.101561
0.0187727
0.102174
0.018954
0.00272621
0.00272523
0.00273922
0.00273848
0.00252967
0.00252914
0.00253979
0.00253943
0.0223552
0.114329
0.0225704
0.115009
0.0187649
0.101544
0.0189489
0.102163
0.294799
0.373856
0.296027
0.375698
0.272224
0.344935
0.27336
0.34666
0.370023
0.292284
0.371924
0.293542
0.341337
0.269868
0.343116
0.271039
0.112989
0.021943
0.113678
0.022157
0.100308
0.0184065
0.100935
0.0185898
0.00270047
0.00269953
0.00271337
0.00271266
0.00250956
0.00250905
0.00251959
0.00251925
0.0219299
0.112962
0.0221474
0.113657
0.0183988
0.10029
0.0185848
0.100924
0.292272
0.37006
0.293536
0.371954
0.269862
0.341362
0.271038
0.343135
0.366145
0.289705
0.368084
0.290986
0.337693
0.26746
0.339505
0.268648
0.1116
0.0215163
0.112298
0.0217303
0.0990363
0.0180395
0.0996713
0.0182227
0.00267521
0.00267429
0.00268783
0.00268715
0.00248983
0.00248933
0.00249964
0.00249931
0.0215034
0.111573
0.0217209
0.112278
0.0180319
0.0990191
0.0182179
0.0996602
0.289693
0.366182
0.29098
0.368114
0.267453
0.337718
0.268646
0.339524
0.362212
0.287094
0.364175
0.288389
0.333998
0.265028
0.335832
0.266226
0.110201
0.0210923
0.110902
0.0213046
0.0977559
0.0176749
0.0983944
0.0178566
0.00265066
0.00264977
0.0026629
0.00266224
0.00247067
0.00247019
0.00248018
0.00247985
0.0210795
0.110174
0.0212953
0.110882
0.0176674
0.0977386
0.0178518
0.0983832
0.287082
0.362249
0.288383
0.364205
0.265021
0.334023
0.266225
0.335851
0.358251
0.284467
0.360224
0.285768
0.330277
0.262583
0.332121
0.263786
0.108801
0.0206738
0.109502
0.020883
0.0964747
0.0173154
0.0971126
0.0174943
0.00262697
0.0026261
0.00263876
0.00263812
0.00245221
0.00245173
0.00246135
0.00246104
0.0206613
0.108774
0.0208738
0.109482
0.0173081
0.0964574
0.0174895
0.0971013
0.284455
0.358287
0.285761
0.360254
0.262575
0.330302
0.263784
0.33214
0.354285
0.281839
0.356257
0.283138
0.326554
0.260138
0.328396
0.26134
0.107408
0.0202633
0.108104
0.0204682
0.0952004
0.0169633
0.0958339
0.0171382
0.00260424
0.00260339
0.00261553
0.00261491
0.00243453
0.00243407
0.00244327
0.00244297
0.0202509
0.107381
0.0204592
0.108084
0.016956
0.095183
0.0171335
0.0958226
0.281826
0.354321
0.283132
0.356287
0.26013
0.326579
0.261337
0.328415
0.350341
0.279224
0.352299
0.280515
0.322853
0.257706
0.324681
0.2589
0.10603
0.0198625
0.106718
0.0200623
0.0939402
0.01662
0.0945658
0.0167903
0.00258252
0.0025817
0.0025933
0.0025927
0.00241766
0.00241721
0.002426
0.0024257
0.0198502
0.106003
0.0200534
0.106698
0.0166128
0.0939227
0.0167857
0.0945543
0.279211
0.350377
0.280508
0.352329
0.257698
0.322878
0.258897
0.3247
0.346443
0.276637
0.348375
0.277912
0.319201
0.255302
0.321001
0.25648
0.104675
0.0194734
0.10535
0.019667
0.0927016
0.0162873
0.0933155
0.0164521
0.00256188
0.00256108
0.00257212
0.00257153
0.00240163
0.0024012
0.00240954
0.00240925
0.0194613
0.104647
0.0196582
0.10533
0.0162801
0.0926841
0.0164475
0.0933039
0.276624
0.346479
0.277905
0.348404
0.255293
0.319225
0.256477
0.32102
0.342617
0.274093
0.34451
0.275345
0.31562
0.252938
0.317381
0.254094
0.103349
0.019098
0.104009
0.0192845
0.0914928
0.0159672
0.0920908
0.0161254
0.00254238
0.0025416
0.00255204
0.00255147
0.00238651
0.00238609
0.00239396
0.00239368
0.0190861
0.103322
0.0192759
0.103988
0.0159601
0.0914752
0.0161209
0.0920791
0.27408
0.342653
0.275337
0.344539
0.252929
0.315644
0.25409
0.3174
0.338885
0.271606
0.340728
0.272828
0.312132
0.25063
0.313844
0.251756
0.102062
0.0187385
0.102702
0.0189169
0.0903214
0.0156614
0.0908999
0.0158123
0.00252408
0.00252332
0.00253313
0.00253257
0.00237236
0.00237195
0.00237932
0.00237904
0.0187267
0.102035
0.0189083
0.102681
0.0156544
0.0903038
0.0158078
0.090888
0.271593
0.338921
0.27282
0.340757
0.250621
0.312156
0.251752
0.313863
0.335244
0.269171
0.337047
0.27037
0.308738
0.248379
0.310407
0.249479
0.100814
0.0183957
0.101435
0.0185657
0.0891904
0.015371
0.0897491
0.0155142
0.00250698
0.00250625
0.00251543
0.00251489
0.00235922
0.00235881
0.00236567
0.0023654
0.0183841
0.100787
0.0185572
0.101415
0.0153641
0.0891727
0.0155097
0.0897371