/*--------------------------------*- C++ -*----------------------------------*\
  =========                 |
  \\      /  F ield         | OpenFOAM: The Open Source CFD Toolbox
   \\    /   O peration     | Website:  https://openfoam.org
    \\  /    A nd           | Version:  9
     \\/     M anipulation  |
\*---------------------------------------------------------------------------*/
FoamFile
{
    format      ascii;
    class       volScalarField;
    location    "0.5";
    object      nut;
}
// * * * * * * * * * * * * * * * * * * * * * * * * * * * * * * * * * * * * * //

dimensions      [0 2 -1 0 0 0 0];

internalField   nonuniform List<scalar> 
36360
(
0.00126596
0.00117692
0.000253082
0.000278847
0.000315645
0.000272162
0.000194518
0.000182576
0.000271813
0.000160901
0.000165245
0.000164394
0.000175763
0.000163978
0.00017256
0.00017466
0.000159526
0.000159526
0.000165973
0.000165973
0.000163707
0.000163707
0.000174844
0.000174844
0.0001609
0.000271796
0.000164395
0.000165245
0.000163978
0.000175762
0.00017466
0.00017256
0.00117685
0.00126586
0.000278841
0.000253073
0.000272153
0.000315635
0.000182576
0.000194518
0.00347655
0.00286751
0.00262599
0.00218509
0.000723749
0.000584441
0.000555348
0.000453612
0.00127789
0.000284742
0.0007517
0.000181474
0.00028156
0.000159298
0.000210642
0.000157599
0.000159678
0.000159677
0.000157758
0.000157758
0.000149818
0.000149819
0.000154862
0.000154862
0.000284711
0.00127779
0.000181465
0.000751616
0.000159298
0.000281552
0.000157598
0.000210634
0.00286742
0.00347656
0.002185
0.00262591
0.000584427
0.000723719
0.00045359
0.000555326
0.00418734
0.00346952
0.00394744
0.0032626
0.00084112
0.000687298
0.000804194
0.000653801
0.00176035
0.00045916
0.00159462
0.000395282
0.000353282
0.000166955
0.000329419
0.000163444
0.00016275
0.000162748
0.000161172
0.000161172
0.000146944
0.000146944
0.000147665
0.000147665
0.000459078
0.00176019
0.000395246
0.00159454
0.000166951
0.000353267
0.000163442
0.000329411
0.00346949
0.00418755
0.00326259
0.00394759
0.000687297
0.000841143
0.000653798
0.000804177
0.00433989
0.00360298
0.00429675
0.00356522
0.000861582
0.000706481
0.000856356
0.000701535
0.00186387
0.000498416
0.00183554
0.000488284
0.000366975
0.000169178
0.000363494
0.000168621
0.000163776
0.000163771
0.00016351
0.000163508
0.000146689
0.000146689
0.000146744
0.000146744
0.000498237
0.00186359
0.000488201
0.00183539
0.000169166
0.000366931
0.000168616
0.00036348
0.00360295
0.0043402
0.00356519
0.00429692
0.000706459
0.000861594
0.000701533
0.000856371
0.00435149
0.00361242
0.00435202
0.00361321
0.000862163
0.000706828
0.000862561
0.000707319
0.00187032
0.000499711
0.00187107
0.000500382
0.000367397
0.000169185
0.000367646
0.00016926
0.000163772
0.000163771
0.000163809
0.000163806
0.000146641
0.000146641
0.000146664
0.000146664
0.00049948
0.00187002
0.000500188
0.00187082
0.000169165
0.000367317
0.000169245
0.000367586
0.00361237
0.00435197
0.00361329
0.00435245
0.000706768
0.000862147
0.000707282
0.000862557
0.00433639
0.00359772
0.00434586
0.0036067
0.000858891
0.000703365
0.000860682
0.000705202
0.00185795
0.000493686
0.00186526
0.000497002
0.000365099
0.000168685
0.000366347
0.000168945
0.000163575
0.00016358
0.000163678
0.000163679
0.000146584
0.000146583
0.000146614
0.000146614
0.000493439
0.00185755
0.000496803
0.00186499
0.000168661
0.000364985
0.000168929
0.000366275
0.00359699
0.00433605
0.00360638
0.00434599
0.000703252
0.000858832
0.000705165
0.000860674
0.00431844
0.00358103
0.00432733
0.00358927
0.000855668
0.000700068
0.000857289
0.000701723
0.00184444
0.000487649
0.00185114
0.000490616
0.000362815
0.000168192
0.000363954
0.000168436
0.000163379
0.000163375
0.000163473
0.000163481
0.000146517
0.000146517
0.000146552
0.000146551
0.000487587
0.0018444
0.000490454
0.00185091
0.000168192
0.00036284
0.000168416
0.000363865
0.00358036
0.00431784
0.00358858
0.00432686
0.000700167
0.000855768
0.000701644
0.000857233
0.00430179
0.00356586
0.00431023
0.00357338
0.000853006
0.000697434
0.000854251
0.000698665
0.00183227
0.00048215
0.00183826
0.00048487
0.000360831
0.000167742
0.00036179
0.000167964
0.000163183
0.000163185
0.000163285
0.000163282
0.000146442
0.000146442
0.000146481
0.000146481
0.000482172
0.00183274
0.000484934
0.00183863
0.000167739
0.000360857
0.000167971
0.000361864
0.00356757
0.004304
0.00357386
0.0043106
0.000697618
0.000853245
0.000698876
0.000854464
0.00428628
0.00355191
0.00429408
0.00355895
0.00085041
0.00069487
0.000851719
0.00069615
0.00182066
0.000476901
0.00182647
0.000479511
0.000358909
0.000167295
0.000359864
0.000167518
0.000162995
0.000163002
0.000163089
0.000163097
0.000146356
0.000146356
0.000146401
0.0001464
0.000476798
0.00182085
0.000479521
0.00182695
0.00016728
0.000358864
0.000167508
0.000359851
0.00355298
0.00428779
0.00356033
0.00429613
0.00069498
0.000850595
0.000696279
0.000851909
0.00426955
0.00353717
0.00427834
0.00354478
0.000847801
0.000692303
0.000849137
0.000693605
0.00180905
0.000471717
0.001815
0.000474344
0.000356996
0.000166846
0.000357956
0.00016707
0.000162818
0.000162832
0.00016291
0.000162923
0.000146259
0.000146258
0.000146309
0.000146309
0.00047158
0.00180905
0.000474225
0.00181508
0.000166827
0.000356902
0.000167053
0.000357872
0.00353854
0.00427192
0.0035463
0.00428029
0.0006923
0.000847904
0.000693639
0.00084925
0.00425361
0.00352334
0.00426137
0.00353008
0.00084503
0.00068964
0.000846369
0.000690924
0.00179716
0.000466309
0.00180313
0.000469038
0.000354941
0.000166356
0.000355965
0.000166602
0.00016265
0.000162654
0.000162735
0.000162745
0.000146147
0.000146147
0.000146205
0.000146204
0.000466367
0.00179723
0.000469031
0.00180322
0.000166364
0.000354977
0.000166598
0.00035595
0.00352309
0.00425346
0.00353014
0.00426208
0.000689701
0.000845153
0.000690973
0.000846506
0.00423742
0.00350913
0.00424561
0.00351628
0.000842273
0.000686999
0.000843656
0.000688304
0.00178522
0.000461002
0.00179123
0.000463651
0.000352933
0.000165873
0.000353923
0.000166113
0.000162484
0.000162486
0.00016257
0.000162575
0.00014602
0.00014602
0.000146085
0.000146086
0.000461117
0.00178553
0.000463821
0.00179158
0.000165884
0.000353005
0.000166128
0.000354
0.00351029
0.00423867
0.00351713
0.00424645
0.000687187
0.000842522
0.000688444
0.000843822
0.00422037
0.00349494
0.00422882
0.00350176
0.000839615
0.000684472
0.000840931
0.000685742
0.00177361
0.000455785
0.00177947
0.000458405
0.000350943
0.000165373
0.000351946
0.000165624
0.00016232
0.000162332
0.000162402
0.000162413
0.000145875
0.000145875
0.00014595
0.00014595
0.000455705
0.00177329
0.000458461
0.00177957
0.000165365
0.000350855
0.000165626
0.00035193
0.00349588
0.00422227
0.00350353
0.0042309
0.000684289
0.00083953
0.000685738
0.000841041
0.00420468
0.00348147
0.00421306
0.0034887
0.000836767
0.000681748
0.000838199
0.000683085
0.00176191
0.000450737
0.00176782
0.000453245
0.000348941
0.000164871
0.000349915
0.000165118
0.000162172
0.000162172
0.00016225
0.000162255
0.000145713
0.000145713
0.000145796
0.000145796
0.000450536
0.00176131
0.000453142
0.00176739
0.000164861
0.000348861
0.000165113
0.000349855
0.00348091
0.0042045
0.00348838
0.00421332
0.000681612
0.000836699
0.000682952
0.000838095
0.00418776
0.00346734
0.00419617
0.00347439
0.000833912
0.000679059
0.000835352
0.000680433
0.00175016
0.000445753
0.00175616
0.000448283
0.000346972
0.000164362
0.000347974
0.000164621
0.000162019
0.000162016
0.000162096
0.000162101
0.00014553
0.000145529
0.000145624
0.000145624
0.000445469
0.00174932
0.000448074
0.00175552
0.000164345
0.000346857
0.000164604
0.000347853
0.00346599
0.00418654
0.00347341
0.00419544
0.000678816
0.00083371
0.000680184
0.000835202
0.00416913
0.00345197
0.00417845
0.00345949
0.000830708
0.000676007
0.000832328
0.000677513
0.0017378
0.000440561
0.00174407
0.00044319
0.000344825
0.00016381
0.000345898
0.000164089
0.000161874
0.000161871
0.00016195
0.000161946
0.000145323
0.000145323
0.000145429
0.000145429
0.000440294
0.00173709
0.000442943
0.00174335
0.000163794
0.00034474
0.000164075
0.000345825
0.00345131
0.00416887
0.00345864
0.00417764
0.000675905
0.000830663
0.000677406
0.000832202
0.00415145
0.00343714
0.00416087
0.00344505
0.000827587
0.000673074
0.000829135
0.000674544
0.00172536
0.00043537
0.00173169
0.000437977
0.000342714
0.000163244
0.000343762
0.000163528
0.00016172
0.000161721
0.0001618
0.000161801
0.000145092
0.000145091
0.000145211
0.00014521
0.00043514
0.00172469
0.000437771
0.00173107
0.00016323
0.000342632
0.000163515
0.000343681
0.00343575
0.0041502
0.00344403
0.00416019
0.000672935
0.000827505
0.000674406
0.000829074
0.00413156
0.00342098
0.00414153
0.00342896
0.000824332
0.000669988
0.000825946
0.000671498
0.00171271
0.000430202
0.00171908
0.000432803
0.000340563
0.000162656
0.000341631
0.000162952
0.00016157
0.00016157
0.000161648
0.000161652
0.000144834
0.000144834
0.000144966
0.000144966
0.000430049
0.00171226
0.000432644
0.00171857
0.000162647
0.000340508
0.000162941
0.000341557
0.00342041
0.00413137
0.0034281
0.00414066
0.000669881
0.000824287
0.000671343
0.000825831
0.00411248
0.00340552
0.0041222
0.00341338
0.000821074
0.00066689
0.00082269
0.000668423
0.0017001
0.000425025
0.00170648
0.000427632
0.000338376
0.000162038
0.000339463
0.000162348
0.00016142
0.000161421
0.000161498
0.000161498
0.000144547
0.000144547
0.000144694
0.000144694
0.000424955
0.00169979
0.000427573
0.00170622
0.000162037
0.00033835
0.000162348
0.000339451
0.00340466
0.00411188
0.0034126
0.00412169
0.000666782
0.000821027
0.000668366
0.000822693
0.00409307
0.00339003
0.00410283
0.00339777
0.000817735
0.000663739
0.000819413
0.000665312
0.00168751
0.000419885
0.00169388
0.000422473
0.00033616
0.000161396
0.000337268
0.00016172
0.000161271
0.000161268
0.000161349
0.00016135
0.00014423
0.00014423
0.000144393
0.000144393
0.000419831
0.0016872
0.000422449
0.00169365
0.000161399
0.000336174
0.000161721
0.00033726
0.00338895
0.00409234
0.00339706
0.00410236
0.000663715
0.000817733
0.000665233
0.000819364
0.00407356
0.00337456
0.00408346
0.00338234
0.000814355
0.000660588
0.000816026
0.000662135
0.00167489
0.000414749
0.00168127
0.000417333
0.000333935
0.000160725
0.000335037
0.000161062
0.000161118
0.00016111
0.000161198
0.000161192
0.00014388
0.000143881
0.000144059
0.00014406
0.000414724
0.00167462
0.000417338
0.00168106
0.000160734
0.000333988
0.000161071
0.000335088
0.00337329
0.00407241
0.00338108
0.00408231
0.00066062
0.000814409
0.000662158
0.000816056
0.00405293
0.00335819
0.00406362
0.00336664
0.000810836
0.000657299
0.000812623
0.000658961
0.00166179
0.00040955
0.00166851
0.000412189
0.00033166
0.000160025
0.000332808
0.000160379
0.000160961
0.000160953
0.000161041
0.000161034
0.000143497
0.000143497
0.000143693
0.000143693
0.000409499
0.00166157
0.0004122
0.00166832
0.000160032
0.000331704
0.000160391
0.000332872
0.00335757
0.00405238
0.0033655
0.00406243
0.000657364
0.000810915
0.000659005
0.00081267
0.00403006
0.00334
0.00404194
0.00334942
0.000806916
0.000653624
0.000808927
0.000655504
0.00164748
0.000404055
0.00165488
0.00040687
0.000329192
0.000159277
0.000330454
0.000159658
0.000160809
0.000160804
0.000160886
0.000160881
0.000143078
0.000143078
0.000143292
0.000143292
0.000403937
0.00164722
0.000406827
0.00165474
0.000159274
0.000329184
0.000159662
0.000330483
0.0033399
0.0040303
0.00334922
0.00404185
0.000653644
0.000806978
0.000655569
0.000809011
0.00400473
0.00331978
0.00401782
0.0033302
0.00080252
0.000649501
0.000804769
0.000651602
0.00163176
0.000398168
0.00163985
0.000401174
0.000326473
0.000158467
0.000327858
0.000158879
0.000160661
0.000160658
0.000160736
0.000160734
0.000142621
0.000142621
0.000142854
0.000142854
0.000398022
0.00163144
0.000401076
0.00163963
0.000158461
0.000326442
0.000158875
0.000327842
0.00331965
0.00400501
0.00333015
0.00401805
0.000649484
0.000802545
0.000651603
0.000804801
0.00397744
0.00329797
0.0039914
0.00330909
0.00079777
0.000645069
0.000800174
0.000647304
0.00161497
0.000391998
0.00162354
0.000395129
0.00032358
0.000157606
0.000325041
0.000158042
0.000160514
0.000160511
0.00016059
0.000160588
0.000142127
0.000142127
0.000142379
0.000142379
0.000391857
0.00161466
0.000395024
0.0016233
0.0001576
0.000323549
0.000158038
0.000325018
0.00329784
0.00397772
0.00330901
0.00399161
0.000645052
0.000797792
0.000647292
0.000800191
0.00394888
0.00327515
0.00396341
0.00328673
0.000792785
0.00064044
0.000795298
0.000642766
0.00159747
0.000385645
0.00160636
0.000388858
0.000320564
0.000156699
0.000322083
0.000157158
0.000160365
0.000160363
0.000160442
0.00016044
0.000141594
0.000141594
0.000141865
0.000141865
0.000385511
0.00159717
0.000388761
0.00160614
0.000156693
0.000320536
0.000157154
0.000322062
0.00327504
0.00394917
0.00328666
0.00396364
0.000640425
0.000792809
0.000642756
0.000795316
0.00391938
0.00325164
0.00393436
0.00326354
0.000787615
0.000635658
0.000790215
0.000638055
0.00157943
0.000379181
0.00158857
0.000382439
0.000317459
0.000155751
0.000319018
0.00015623
0.000160215
0.000160213
0.000160292
0.00016029
0.000141023
0.000141023
0.000141313
0.000141313
0.000379051
0.00157914
0.000382347
0.00158835
0.000155746
0.000317431
0.000156226
0.000318999
0.00325152
0.00391968
0.00326347
0.00393459
0.000635645
0.00078764
0.000638047
0.000790235
0.0038891
0.00322758
0.00390445
0.00323973
0.000782306
0.000630778
0.000784969
0.000633217
0.00156101
0.000372686
0.00157032
0.00037595
0.000314299
0.00015477
0.000315881
0.000155264
0.000160066
0.000160063
0.000160142
0.000160141
0.000140414
0.000140414
0.000140723
0.000140723
0.000372558
0.00156072
0.000375861
0.00157011
0.000154764
0.000314271
0.000155261
0.000315863
0.00322746
0.0038894
0.00323967
0.00390469
0.000630765
0.000782331
0.000633209
0.00078499
0.00385829
0.00320312
0.00387387
0.00321545
0.000776902
0.000625854
0.000779607
0.000628308
0.00154237
0.000366223
0.00155177
0.000369464
0.000311112
0.000153758
0.000312705
0.000154267
0.000159918
0.000159915
0.000159993
0.000159992
0.000139768
0.000139768
0.000140096
0.000140095
0.000366098
0.00154207
0.000369377
0.00155156
0.000153753
0.000311085
0.000154264
0.000312687
0.003203
0.00385859
0.00321539
0.00387411
0.00062584
0.000776928
0.000628301
0.000779628
0.00382716
0.00317842
0.00384288
0.00319085
0.000771445
0.000620937
0.000774172
0.000623381
0.00152362
0.000359847
0.00153306
0.000363038
0.000307923
0.000152721
0.000309514
0.000153242
0.000159771
0.000159769
0.000159846
0.000159844
0.000139086
0.000139086
0.000139432
0.000139431
0.000359724
0.00152333
0.000362952
0.00153284
0.000152716
0.000307896
0.000153239
0.000309496
0.0031783
0.00382746
0.00319079
0.00384312
0.000620922
0.000771471
0.000623373
0.000774193
0.00379589
0.0031536
0.00381165
0.00316608
0.000765974
0.000616076
0.000768703
0.000618486
0.0015049
0.000353604
0.00151431
0.000356723
0.000304751
0.000151662
0.000306332
0.000152194
0.000159625
0.000159623
0.000159699
0.000159698
0.000138371
0.00013837
0.000138733
0.000138732
0.000353483
0.00150461
0.000356639
0.0015141
0.000151657
0.000304724
0.00015219
0.000306313
0.00315348
0.00379619
0.00316601
0.00381189
0.000616062
0.000765999
0.000618478
0.000768724
0.0037647
0.00312878
0.00378039
0.00314125
0.000760524
0.000611321
0.000763238
0.000613673
0.00148631
0.000347526
0.00149564
0.000350559
0.00030161
0.000150583
0.000303174
0.000151124
0.00015948
0.000159478
0.000159554
0.000159553
0.000137623
0.000137623
0.000138
0.000138
0.000347407
0.00148602
0.000350476
0.00149543
0.000150578
0.000301583
0.000151121
0.000303156
0.00312866
0.003765
0.00314117
0.00378063
0.000611307
0.000760549
0.000613664
0.000763259
0.0037338
0.00310402
0.00374932
0.00311645
0.000755135
0.000606714
0.000757814
0.000608987
0.001468
0.000341649
0.00147717
0.000344576
0.000298512
0.000149488
0.000300053
0.000150037
0.000159336
0.000159334
0.000159409
0.000159408
0.000136845
0.000136845
0.000137238
0.000137237
0.000341533
0.00146771
0.000344494
0.00147695
0.000149483
0.000298486
0.000150034
0.000300034
0.0031039
0.0037341
0.00311638
0.00374955
0.0006067
0.00075516
0.000608978
0.000757834
0.00370345
0.00307942
0.00371866
0.00309174
0.000749845
0.000602312
0.000752469
0.000604471
0.00145013
0.000336017
0.00145906
0.000338816
0.000295475
0.000148382
0.000296983
0.000148936
0.000159192
0.000159191
0.000159266
0.000159264
0.000136042
0.000136042
0.000136447
0.000136447
0.000335903
0.00144984
0.000338736
0.00145884
0.000148377
0.000295448
0.000148933
0.000296965
0.00307929
0.00370375
0.00309167
0.0037189
0.000602298
0.00074987
0.000604462
0.00075249
0.00367384
0.00305538
0.00368866
0.00306735
0.000744688
0.000598068
0.000747242
0.000600166
0.00143289
0.000330664
0.00144148
0.00033332
0.00029251
0.000147269
0.00029398
0.000147826
0.000159046
0.000159044
0.000159121
0.00015912
0.000135215
0.000135215
0.000135631
0.000135631
0.000330552
0.0014326
0.000333241
0.00144127
0.000147265
0.000292483
0.000147823
0.000293962
0.00305525
0.00367414
0.00306728
0.0036889
0.000598053
0.000744713
0.000600157
0.000747262
0.00364488
0.00303212
0.00365943
0.00304373
0.000739685
0.000593947
0.000742161
0.000595982
0.00141634
0.000325615
0.00142458
0.000328116
0.000289633
0.000146154
0.000291058
0.000146711
0.000158891
0.00015889
0.000158971
0.00015897
0.000134368
0.000134368
0.000134794
0.000134793
0.000325504
0.00141605
0.000328039
0.00142437
0.00014615
0.000289606
0.000146708
0.000291039
0.00303199
0.00364518
0.00304365
0.00365967
0.000593932
0.00073971
0.000595972
0.000742182
0.00361433
0.00300819
0.00363031
0.00302057
0.00073474
0.000589906
0.00073722
0.000591921
0.00140007
0.000320839
0.00140833
0.000323219
0.00028684
0.000145041
0.000288228
0.000145597
0.000158726
0.000158724
0.000158812
0.000158811
0.000133505
0.000133505
0.000133938
0.000133938
0.00032073
0.00139978
0.000323143
0.00140812
0.000145036
0.000286813
0.000145594
0.000288209
0.00300806
0.00361463
0.00302049
0.00363055
0.000589891
0.000734765
0.000591911
0.000737241
0.0035672
0.00297098
0.00359503
0.00299326
0.00072879
0.000585036
0.000732054
0.000587733
0.00137809
0.0003155
0.00139088
0.000318414
0.000283801
0.000143912
0.000285416
0.000144482
0.00015854
0.000158538
0.000158638
0.000158637
0.00013263
0.00013263
0.000133069
0.000133069
0.000315393
0.0013778
0.000318339
0.00139067
0.000143908
0.000283775
0.000144479
0.000285397
0.00297085
0.0035675
0.00299317
0.00359527
0.00058502
0.000728815
0.000587722
0.000732076
0.00344823
0.00285555
0.00352266
0.00293162
0.000715178
0.000571088
0.000724028
0.000580561
0.00131594
0.000302818
0.00135617
0.000310992
0.000276814
0.000142456
0.000281432
0.000143283
0.000158364
0.000158362
0.000158432
0.000158431
0.00013174
0.00013174
0.000132188
0.000132188
0.000302718
0.00131562
0.000310907
0.00135593
0.000142452
0.000276787
0.00014328
0.000281411
0.00285536
0.00344857
0.00293151
0.00352291
0.000571068
0.000715206
0.000580547
0.00072405
0.00165626
0.00146961
0.000293106
0.000307667
0.00156656
0.00138585
0.000284958
0.000293085
0.000353593
0.000164707
0.000166687
0.000162685
0.000328513
0.000163755
0.000166454
0.000162956
0.000158755
0.000158755
0.000165637
0.000165637
0.000158807
0.000158807
0.000165732
0.000165732
0.000164705
0.000353553
0.000162686
0.000166686
0.000163753
0.000328469
0.000162956
0.000166453
0.00146948
0.00165608
0.00030765
0.000293085
0.00138572
0.0015664
0.000293057
0.000284936
0.00462616
0.00380645
0.00346426
0.00285539
0.00429473
0.00353477
0.0032356
0.00267007
0.00188689
0.000456079
0.00110589
0.000226054
0.00170761
0.000403629
0.00100439
0.000211871
0.000161782
0.00016178
0.00015788
0.000157879
0.000160839
0.000160839
0.000157563
0.000157564
0.00045598
0.00188666
0.000226026
0.00110575
0.000403571
0.00170748
0.00021185
0.00100428
0.00380631
0.00462624
0.00285528
0.00346419
0.0035347
0.00429477
0.00267001
0.00323554
0.005672
0.00469596
0.00530509
0.00438105
0.00522568
0.00432455
0.00490303
0.00404805
0.00261952
0.000814289
0.00236201
0.000681879
0.00235384
0.000700832
0.00212921
0.000592053
0.000179219
0.000179191
0.000170683
0.000170674
0.000172258
0.00017225
0.000166646
0.000166644
0.000813968
0.00261907
0.00068173
0.00236174
0.000700718
0.00235362
0.00059202
0.00212911
0.00469583
0.00567238
0.00438095
0.00530526
0.00432449
0.00522589
0.00404803
0.00490313
0.00592756
0.0049151
0.00585113
0.0048499
0.00544385
0.00451171
0.00537965
0.00445692
0.00279273
0.000901945
0.00274262
0.000877731
0.00250079
0.000770747
0.00245902
0.000751849
0.000186033
0.000185994
0.00018413
0.000184102
0.000176619
0.000176601
0.000175428
0.000175421
0.000901586
0.00279229
0.000877441
0.00274225
0.000770539
0.00250052
0.000751759
0.00245885
0.00491508
0.00592825
0.00484987
0.00585155
0.00451174
0.00544425
0.00445693
0.00537985
0.00595303
0.00493542
0.0059525
0.0049355
0.00546339
0.00452722
0.0054635
0.00452777
0.00280679
0.000906704
0.00280712
0.000907601
0.00251152
0.000773956
0.0025121
0.000774845
0.000186298
0.000186263
0.000186417
0.000186386
0.000176749
0.000176732
0.000176839
0.000176825
0.000906469
0.00280648
0.000907385
0.00280693
0.000773757
0.00251133
0.000774686
0.002512
0.00493558
0.0059539
0.00493565
0.00595317
0.00452744
0.00546408
0.00452804
0.00546406
0.00593054
0.00491444
0.00594523
0.00492787
0.00544291
0.004508
0.00545591
0.00451996
0.00278918
0.000895063
0.00280013
0.000901786
0.00249567
0.00076416
0.00250525
0.000769678
0.000185174
0.000185154
0.000185797
0.000185781
0.000176001
0.000175994
0.000176408
0.0001764
0.00089489
0.00278865
0.000901708
0.0027999
0.000763975
0.00249528
0.000769572
0.00250511
0.00491412
0.00593071
0.00492802
0.00594595
0.00450792
0.0054432
0.00452016
0.0054564
0.00589994
0.0048877
0.0059151
0.00490068
0.00541675
0.00448504
0.00542953
0.0044961
0.00276853
0.000883001
0.00277883
0.00088895
0.00247774
0.000754212
0.00248663
0.000759083
0.000184054
0.00018404
0.000184604
0.000184597
0.000175262
0.000175264
0.000175622
0.000175629
0.000882747
0.00276785
0.000888808
0.0027782
0.000754167
0.00247754
0.000759001
0.00248631
0.00488785
0.00590096
0.00490078
0.00591555
0.00448489
0.00541704
0.00449595
0.00542965
0.00587618
0.00486641
0.00588788
0.00487706
0.00539551
0.00446612
0.00540586
0.00447536
0.00274971
0.0008717
0.00275906
0.000877313
0.0024613
0.000745011
0.00246937
0.000749554
0.000183044
0.00018302
0.000183548
0.000183538
0.000174587
0.000174583
0.000174922
0.000174929
0.000871686
0.00274971
0.00087729
0.00275895
0.000745217
0.00246181
0.000749744
0.00246974
0.00486671
0.00587759
0.00487764
0.00588934
0.00446695
0.00539702
0.00447589
0.00540671
0.00585208
0.00484496
0.0058645
0.00485579
0.00537544
0.00444811
0.00538551
0.00445708
0.00273227
0.000861324
0.00274103
0.000866475
0.00244617
0.000736483
0.00245366
0.000740687
0.000182086
0.000182069
0.000182561
0.000182552
0.000173956
0.00017395
0.000174271
0.000174268
0.000861168
0.00273226
0.000866511
0.00274116
0.000736506
0.00244632
0.000740922
0.00245419
0.00484527
0.00585292
0.00485551
0.00586473
0.00444869
0.00537632
0.00445758
0.00538634
0.00582831
0.00482396
0.00584061
0.00483477
0.00535392
0.00442912
0.00536529
0.00443901
0.00271496
0.000851014
0.0027238
0.00085625
0.00243105
0.000728063
0.00243877
0.00073232
0.000181191
0.000181165
0.000181645
0.000181631
0.00017335
0.000173354
0.000173656
0.000173665
0.000850912
0.00271516
0.000856206
0.00272402
0.00072804
0.00243119
0.000732357
0.00243894
0.00482522
0.00583055
0.00483581
0.00584222
0.00443065
0.00535628
0.00444006
0.00536663
0.00580389
0.00480256
0.00581645
0.00481348
0.00533309
0.00441103
0.00534312
0.0044198
0.00269737
0.000840594
0.00270629
0.000845848
0.00241575
0.000719421
0.00242339
0.000723765
0.000180286
0.000180284
0.000180743
0.000180736
0.000172756
0.000172767
0.000173052
0.000173063
0.000840608
0.0026977
0.000845879
0.00270671
0.000719548
0.00241585
0.000723879
0.0024237
0.00480377
0.00580586
0.00481462
0.00581831
0.00441146
0.00533373
0.00442091
0.00534488
0.00578074
0.0047823
0.00579273
0.00479278
0.00531189
0.00439256
0.00532262
0.0044018
0.00268011
0.000830342
0.00268892
0.000835501
0.00240037
0.000710878
0.00240815
0.000715138
0.000179435
0.000179452
0.000179861
0.00017988
0.000172198
0.000172212
0.000172479
0.000172499
0.000830592
0.00268054
0.000835763
0.00268945
0.000711157
0.00240076
0.000715463
0.00240849
0.00478368
0.00578291
0.00479413
0.00579461
0.00439453
0.0053145
0.00440341
0.0053243
0.00575705
0.00476184
0.00576891
0.00477201
0.00529016
0.00437386
0.00530112
0.00438319
0.00266301
0.00082033
0.00267164
0.000825336
0.00238511
0.000702559
0.00239273
0.000706699
0.000178631
0.000178644
0.000179034
0.000179059
0.000171653
0.000171662
0.000171922
0.000171942
0.000820463
0.00266297
0.000825669
0.00267198
0.000702616
0.00238516
0.000706973
0.00239315
0.00476208
0.00575807
0.004773
0.00577066
0.00437521
0.00529246
0.00438514
0.00530375
0.00573387
0.0047418
0.00574594
0.00475208
0.00527018
0.00435678
0.00528025
0.0043654
0.0026465
0.000810925
0.00265486
0.000815614
0.00237042
0.000694619
0.00237781
0.000698561
0.000177901
0.000177881
0.000178263
0.000178275
0.000171161
0.000171156
0.000171407
0.000171419
0.000810627
0.00264598
0.000815651
0.00265473
0.000694413
0.00236987
0.000698562
0.00237763
0.0047422
0.00573521
0.00475259
0.00574687
0.00435564
0.00526961
0.00436554
0.0052811
0.00571066
0.00472172
0.0057226
0.0047321
0.00524807
0.00433796
0.00525938
0.00434741
0.00262991
0.000801646
0.00263839
0.00080635
0.00235542
0.000686783
0.00236297
0.000690731
0.000177194
0.000177157
0.000177556
0.00017753
0.000170682
0.000170663
0.000170926
0.000170912
0.000801027
0.00262904
0.000805988
0.00263782
0.000686367
0.00235462
0.000690499
0.00236244
0.00472147
0.00571094
0.00473175
0.00572284
0.0043367
0.00524706
0.00434614
0.00525816
0.00568541
0.0047004
0.00569808
0.00471096
0.00522631
0.00431952
0.0052374
0.00432901
0.00261291
0.000792199
0.00262162
0.000797
0.00234006
0.000678739
0.00234789
0.000682809
0.000176498
0.000176463
0.000176848
0.000176821
0.000170213
0.000170201
0.000170451
0.000170445
0.000791561
0.00261203
0.000796422
0.00262086
0.000678293
0.00233933
0.000682429
0.0023472
0.00470012
0.0056861
0.00471136
0.0056992
0.00431865
0.00522565
0.00432775
0.00523626
0.00566066
0.00467946
0.00567353
0.0046902
0.00520326
0.00430006
0.00521508
0.0043099
0.00259573
0.000782712
0.00260448
0.000787492
0.00232457
0.000670669
0.00233241
0.000674719
0.000175828
0.0001758
0.000176165
0.000176145
0.000169762
0.00016976
0.00016999
0.000169987
0.000782269
0.00259501
0.000787074
0.00260385
0.000670351
0.00232404
0.000674414
0.00233193
0.00467956
0.00566157
0.00469015
0.00567397
0.00429964
0.0052033
0.0043097
0.00521505
0.00563571
0.00465839
0.00564854
0.00466917
0.00517927
0.0042801
0.00519142
0.00429014
0.00257861
0.000773456
0.00258725
0.000778098
0.00230886
0.0006627
0.00231674
0.000666681
0.000175191
0.000175166
0.000175516
0.000175497
0.000169333
0.00016932
0.000169551
0.000169548
0.000773004
0.00257791
0.000777776
0.00258674
0.000662467
0.00230841
0.000666484
0.00231633
0.0046579
0.00563616
0.0046693
0.00564946
0.00427973
0.00517931
0.00428956
0.00519102
0.00561125
0.004638
0.00562362
0.0046483
0.00515613
0.00426114
0.00516773
0.00427061
0.00256198
0.000764474
0.00257043
0.000768999
0.00229345
0.000654869
0.00230121
0.000658783
0.000174584
0.000174549
0.000174891
0.00017487
0.000168922
0.000168908
0.000169128
0.000169118
0.000763998
0.00256102
0.000768627
0.00256974
0.000654731
0.00229306
0.000658694
0.00230089
0.00463627
0.00561035
0.00464741
0.00562342
0.00426032
0.00515568
0.00426994
0.00516731
0.00558656
0.0046174
0.0055993
0.00462792
0.00513302
0.00424212
0.00514465
0.00425166
0.00254553
0.000755769
0.0025539
0.000760136
0.00227821
0.000647246
0.00228585
0.000651055
0.00017401
0.000173971
0.000174299
0.000174271
0.000168528
0.000168519
0.000168727
0.000168722
0.000755267
0.00254461
0.000759763
0.002553
0.00064705
0.00227771
0.000650986
0.0022856
0.00461523
0.00558476
0.00462569
0.00559747
0.00424085
0.00513204
0.00425091
0.00514408
0.0055609
0.00459633
0.00557406
0.00460702
0.00510925
0.00422273
0.00512129
0.00423243
0.00252922
0.000747315
0.00253751
0.000751575
0.00226315
0.000639749
0.00227073
0.000643509
0.00017347
0.000173426
0.000173744
0.000173709
0.000168153
0.000168144
0.000168343
0.000168339
0.000746803
0.00252857
0.000751165
0.00253688
0.000639508
0.00226268
0.000643366
0.00227036
0.00459568
0.0055608
0.00460567
0.00557276
0.00422206
0.0051088
0.00423145
0.00512029
0.00553492
0.00457517
0.00554827
0.00458601
0.00508483
0.00420306
0.00509712
0.00421291
0.0025126
0.000738757
0.00252117
0.000743142
0.00224759
0.000632125
0.00225553
0.000635999
0.000172941
0.000172903
0.000173211
0.000173178
0.00016779
0.000167779
0.000167974
0.000167969
0.000738269
0.00251207
0.000742749
0.00252076
0.000631863
0.00224709
0.000635831
0.00225518
0.00457505
0.0055355
0.0045857
0.00554844
0.00420264
0.0050849
0.00421253
0.00509691
0.00550669
0.004552
0.00552156
0.00456417
0.00505827
0.00418137
0.00507211
0.00419266
0.00249437
0.000729456
0.00250392
0.000734279
0.00223045
0.000623937
0.00223932
0.000628139
0.000172408
0.000172376
0.000172682
0.000172654
0.00016743
0.00016742
0.000167613
0.000167608
0.000728989
0.00249377
0.000733909
0.00250351
0.000623659
0.00223
0.000627954
0.00223898
0.00455199
0.00550751
0.00456427
0.00552222
0.00418112
0.00505845
0.00419229
0.00507202
0.00547467
0.00452564
0.00549143
0.00453939
0.00502801
0.00415664
0.00504364
0.00416936
0.00247393
0.000719283
0.00248454
0.000724508
0.00221143
0.00061508
0.0022212
0.000619598
0.000171868
0.00017184
0.000172144
0.000172121
0.000167077
0.000167065
0.000167256
0.000167249
0.000718846
0.00247327
0.000724163
0.00248405
0.000614814
0.00221098
0.000619405
0.00222087
0.00452545
0.0054753
0.00453936
0.00549203
0.0041565
0.00502838
0.00416928
0.00504385
0.00543976
0.00449695
0.00545778
0.0045117
0.00499524
0.00412995
0.00501196
0.00414352
0.00245191
0.0007086
0.00246321
0.000714036
0.00219105
0.000605788
0.00220142
0.000610493
0.000171335
0.000171309
0.000171605
0.000171586
0.000166733
0.000166721
0.000166907
0.0001669
0.000708191
0.00245128
0.000713721
0.00246272
0.000605544
0.00219064
0.000610322
0.00220112
0.00449674
0.00544037
0.00451158
0.00545826
0.00412982