/*--------------------------------*- C++ -*----------------------------------*\
  =========                 |
  \\      /  F ield         | OpenFOAM: The Open Source CFD Toolbox
   \\    /   O peration     | Website:  https://openfoam.org
    \\  /    A nd           | Version:  9
     \\/     M anipulation  |
\*---------------------------------------------------------------------------*/
FoamFile
{
    format      ascii;
    class       surfaceScalarField;
    location    "0.5";
    object      phi;
}
// * * * * * * * * * * * * * * * * * * * * * * * * * * * * * * * * * * * * * //

dimensions      [0 3 -1 0 0 0 0];

internalField   nonuniform List<scalar> 
104044
(
9.25151e-07
-0.000141908
7.14217e-07
0.000140029
2.39333e-07
-0.000101333
-4.54291e-06
-3.79218e-07
0.000106486
6.94587e-07
2.2978e-07
2.19811e-06
-1.45477e-06
-5.7824e-06
-1.31568e-07
2.31543e-06
1.29596e-07
-0.000135271
0.000135856
-0.000111465
-5.78193e-08
0.000107109
2.82702e-07
-1.67067e-07
2.68756e-09
-0.000120479
-1.12163e-06
0.000120669
5.50166e-07
-0.000122957
-8.75949e-07
3.06509e-09
0.000123721
1.10927e-07
1.03845e-08
-1.63614e-06
2.82617e-07
-1.65229e-06
7.43993e-10
1.90625e-07
-2.69224e-09
-0.000122632
0.000121455
-0.000122235
-7.18557e-10
0.000121357
-2.46726e-09
-8.47384e-11
1.9798e-12
-0.000122884
-9.07362e-07
0.000123677
1.17269e-07
-0.000122884
-9.07361e-07
-3.05424e-09
0.000123677
1.17263e-07
8.64301e-13
-1.66203e-06
1.89588e-07
-1.66203e-06
-7.40601e-10
1.89584e-07
2.53993e-12
-0.000121899
0.000120991
-0.000121899
7.30885e-10
0.000120991
8.47344e-13
8.83121e-11
-2.66096e-09
-0.000122957
-8.75932e-07
0.000123721
1.10881e-07
-0.000120479
-1.12138e-06
3.79224e-07
0.000120669
5.49626e-07
-1.03803e-08
-1.65228e-06
1.90607e-07
-1.63603e-06
1.31539e-07
2.82435e-07
2.73006e-09
-0.000122235
0.000121357
-0.000122632
5.78495e-08
0.000121455
2.47331e-09
1.67032e-07
-9.25194e-07
-0.000101333
-4.5421e-06
0.000106487
6.9332e-07
-0.000141907
7.1465e-07
0.000140029
2.38699e-07
-2.29779e-07
-5.78155e-06
2.31436e-06
2.19821e-06
-1.45506e-06
-1.29965e-07
-0.000111465
0.000107111
-0.000135269
0.000135854
-2.82772e-07
1.53075e-06
-0.000137541
-1.87209e-06
0.000134813
3.06959e-06
-0.000111692
9.42609e-07
-4.0032e-07
0.000115374
-2.69377e-06
1.44064e-06
-1.46182e-06
2.50898e-06
-2.25575e-06
-4.66881e-07
-1.04235e-06
-4.78984e-07
-0.000134551
0.000133158
-0.00010459
3.09295e-07
0.000104744
-1.57225e-07
1.06515e-07
-4.77144e-08
-0.000120787
-1.83386e-06
0.000120904
1.36377e-06
-0.00012409
-3.69263e-07
-3.53182e-09
0.000124196
2.18869e-07
-2.33468e-08
-1.69712e-06
1.13527e-06
-5.71399e-07
1.19797e-09
1.78465e-07
-2.04437e-08
-0.000119877
0.000118373
-0.000120776
-6.79165e-09
0.000120393
-1.26671e-08
-2.99857e-09
-1.35506e-11
-0.000124127
-2.94968e-07
0.000124376
4.24871e-08
-0.000124127
-2.94958e-07
3.58794e-09
0.000124376
4.24882e-08
6.69386e-12
-5.63511e-07
1.15372e-07
-5.63507e-07
-1.16933e-09
1.15367e-07
1.00799e-11
-0.000120425
0.000120123
-0.000120425
6.8305e-09
0.000120123
1.00775e-11
3.04041e-09
4.78818e-08
-0.00012409
-3.69187e-07
0.000124196
2.18785e-07
-0.000120787
-1.83357e-06
4.00595e-07
0.000120905
1.36351e-06
2.34163e-08
-5.71387e-07
1.7843e-07
-1.69695e-06
4.67006e-07
1.13498e-06
2.05747e-08
-0.000120776
0.000120393
-0.000119878
-3.08387e-07
0.000118373
1.27642e-08
-1.06433e-07
-1.531e-06
-0.000111693
9.38673e-07
0.000115374
-2.6886e-06
-0.000137542
-1.87216e-06
0.000134816
3.06653e-06
-1.44081e-06
-2.2556e-06
-1.04296e-06
-1.4665e-06
2.5128e-06
4.78298e-07
-0.000104592
0.000104744
-0.000134544
0.00013315
1.56498e-07
9.76489e-07
-0.000132481
-3.06801e-06
0.000130604
3.96882e-06
-0.000117818
4.33865e-06
-1.09661e-07
0.000119479
-4.91369e-06
1.28657e-06
-2.46671e-06
3.51173e-06
3.13199e-06
-2.54858e-07
-4.03441e-06
-1.31467e-06
-0.000131572
0.000129818
-0.000106466
7.32631e-07
0.000108757
-8.80566e-07
5.29325e-07
-3.29748e-08
-0.000120936
-1.21958e-06
0.000120979
1.09994e-06
-0.000124056
-1.47879e-07
-1.36472e-08
0.000123827
3.57705e-07
-5.01876e-08
-1.4847e-06
1.24887e-06
-1.82285e-07
-1.01866e-08
2.82146e-07
5.22443e-09
-0.000117431
0.000116939
-0.000120215
-2.27167e-08
0.000120095
-1.34341e-08
-1.76366e-08
-5.80453e-12
-0.000124371
2.07638e-08
0.000124263
7.37791e-08
-0.000124371
2.07743e-08
1.37337e-08
0.000124263
7.37711e-08
-3.95602e-10
-4.64219e-08
4.10136e-08
-4.62851e-08
8.91888e-09
4.11604e-08
6.8148e-12
-0.000120059
0.000120057
-0.000120059
2.27502e-08
0.000120057
-2.86895e-11
1.77037e-08
3.31589e-08
-0.000124056
-1.47796e-07
0.000123827
3.57594e-07
-0.000120935
-1.21943e-06
1.0973e-07
0.000120978
1.09973e-06
4.8537e-08
-1.82126e-07
2.82229e-07
-1.48458e-06
2.54518e-07
1.24816e-06
-5.13262e-09
-0.000120215
0.000120095
-0.000117431
-7.32543e-07
0.000116939
1.37058e-08
-5.28329e-07
-9.76504e-07
-0.000117816
4.3382e-06
0.000119478
-4.9136e-06
-0.00013248
-3.06989e-06
0.000130603
3.97068e-06
-1.2867e-06
3.12875e-06
-4.02951e-06
-2.45217e-06
3.50147e-06
1.3139e-06
-0.000106465
0.000108757
-0.000131577
0.000129822
8.79483e-07
3.76536e-07
-0.000129153
-3.68556e-06
0.000128
4.46213e-06
-0.000120628
4.81366e-06
8.71873e-08
0.000121463
-5.35995e-06
6.49812e-07
-3.43673e-06
4.2377e-06
4.71198e-06
1.33697e-08
-5.22444e-06
-1.98162e-06
-0.00012805
0.000126346
-0.000110934
9.66219e-07
0.0001128
-1.66819e-06
8.66901e-07
1.51203e-08
-0.000121088
-9.47975e-07
0.000121219
8.88386e-07
-0.000123608
-2.55923e-07
-2.81668e-08
0.000123427
4.80371e-07
-1.94771e-08
-1.03557e-06
9.59279e-07
-1.91541e-07
-2.76806e-08
4.1831e-07
6.04178e-08
-0.000116739
0.000116697
-0.000119957
-2.13398e-08
0.000119782
3.11636e-08
-2.22219e-08
-3.35642e-11
-0.000124131
-3.58986e-08
0.000123995
1.43262e-07
-0.000124131
-3.58791e-08
2.82482e-08
0.000123995
1.43085e-07
9.05518e-12
-5.79064e-10
1.05121e-07
-5.78587e-10
2.77209e-08
1.0511e-07
1.37197e-12
-0.000120034
0.000119977
-0.000120034
2.13722e-08
0.000119977
3.15671e-12
2.22232e-08
-1.51677e-08
-0.000123608
-2.55911e-07
0.000123427
4.80543e-07
-0.000121087
-9.4769e-07
-8.73236e-08
0.000121219
8.8836e-07
1.95105e-08
-1.91442e-07
4.18189e-07
-1.03526e-06
-1.34239e-08
9.59059e-07
-6.03785e-08
-0.000119957
0.000119782
-0.000116739
-9.66305e-07
0.000116697
-3.11229e-08
-8.67012e-07
-3.76423e-07
-0.000120627
4.81469e-06
0.000121462
-5.3605e-06
-0.000129154
-3.68489e-06
0.000128001
4.46114e-06
-6.49783e-07
4.71134e-06
-5.22394e-06
-3.44091e-06
4.24023e-06
1.98166e-06
-0.000110933
0.0001128
-0.000128049
0.000126345
1.66796e-06
-3.12944e-08
-0.000127074
-3.69798e-06
0.000126297
4.50715e-06
-0.000122003
4.53556e-06
2.61427e-07
0.00012236
-5.18526e-06
1.47119e-07
-3.6977e-06
4.4762e-06
4.6501e-06
2.10267e-07
-5.25333e-06
-2.37554e-06
-0.000124834
0.000123512
-0.000114246
1.06384e-06
0.000115342
-2.18586e-06
1.0186e-06
6.07374e-08
-0.000121411
-8.13492e-07
0.000121596
8.29171e-07
-0.000123265
-3.18778e-07
-2.03724e-08
0.000123116
5.48972e-07
3.7795e-08
-8.58471e-07
8.39718e-07
-2.94314e-07
-2.23028e-08
5.16844e-07
1.1358e-07
-0.000116769
0.000116906
-0.000119596
-1.85314e-08
0.00011941
8.75982e-08
-2.05243e-08
-3.77237e-11
-0.000123868
-1.03084e-07
0.000123733
2.17959e-07
-0.000123868
-1.03066e-07
2.03022e-08
0.000123733
2.17945e-07
-1.88101e-11
-7.5775e-08
1.80836e-07
-7.5769e-08
2.22824e-08
1.80839e-07
-3.20411e-11
-0.000119881
0.000119759
-0.000119881
1.85011e-08
0.000119759
-1.59744e-11
2.05142e-08
-6.07788e-08
-0.000123265
-3.1874e-07
0.000123116
5.48905e-07
-0.000121411
-8.13692e-07
-2.6165e-07
0.000121596
8.29089e-07
-3.78033e-08
-2.94272e-07
5.16778e-07
-8.58239e-07
-2.10558e-07
8.39459e-07
-1.13482e-07
-0.000119596
0.000119409
-0.00011677
-1.06366e-06
0.000116907
-8.7562e-08
-1.01866e-06
3.14314e-08
-0.000122002
4.53461e-06
0.000122359
-5.18465e-06
-0.000127075
-3.6957e-06
0.000126298
4.50471e-06
-1.4698e-07
4.65119e-06
-5.25451e-06
-3.69467e-06
4.47383e-06
2.37507e-06
-0.000114247
0.000115343
-0.000124837
0.000123516
2.18592e-06
-2.78922e-07
-0.000125638
-3.52942e-06
0.000125062
4.38394e-06
-0.000122579
4.21335e-06
2.82173e-07
0.000122691
-4.88579e-06
-1.69516e-07
-3.58116e-06
4.40958e-06
4.32415e-06
2.7685e-07
-4.98943e-06
-2.58329e-06
-0.000122403
0.000121457
-0.000116126
1.07931e-06
0.000116677
-2.47234e-06
1.06781e-06
1.08204e-07
-0.000121753
-7.80368e-07
0.000121876
8.31762e-07
-0.000122977
-3.32371e-07
-1.17149e-08
0.000122842
5.87188e-07
8.20464e-08
-7.79802e-07
8.17229e-07
-3.25803e-07
-1.6448e-08
5.62874e-07
1.50808e-07
-0.000117061
0.000117209
-0.000119232
-1.07811e-08
0.000119061
1.33097e-07
-1.4899e-08
-3.71572e-11
-0.000123589
-1.41274e-07
0.000123433
2.85506e-07
-0.000123589
-1.41245e-07
1.16108e-08
0.000123433
2.85477e-07
-3.72264e-11
-1.22004e-07
2.49275e-07
-1.21978e-07
1.63818e-08
2.49241e-07
-5.60645e-11
-0.000119622
0.00011947
-0.000119622
1.0673e-08
0.00011947
-4.28256e-11
1.48447e-08
-1.08388e-07
-0.000122977
-3.32185e-07
0.000122842
5.87091e-07
-0.000121753
-7.81051e-07
-2.81326e-07
0.000121876
8.31478e-07
-8.20073e-08
-3.25661e-07
5.62724e-07
-7.79412e-07
-2.76504e-07
8.16587e-07
-1.5071e-07
-0.000119232
0.000119061
-0.000117062
-1.07874e-06
0.000117209
-1.3294e-07
-1.0673e-06
2.77996e-07
-0.000122576
4.20632e-06
0.000122691
-4.88061e-06
-0.000125641
-3.52531e-06
0.000125064
4.38019e-06
1.69138e-07
4.32498e-06
-4.98778e-06
-3.58094e-06
4.40705e-06
2.58107e-06
-0.000116129
0.000116675
-0.000122407
0.000121462
2.47158e-06
-4.2167e-07
-0.000124556
-3.37005e-06
0.000124092
4.25654e-06
-0.000122717
3.95139e-06
2.60226e-07
0.000122679
-4.59619e-06
-3.56863e-07
-3.41514e-06
4.27764e-06
4.03943e-06
2.71841e-07
-4.69407e-06
-2.6777e-06
-0.000120657
0.000119965
-0.00011704
1.0567e-06
0.000117256
-2.61587e-06
1.06078e-06
1.63451e-07
-0.000121947
-7.97879e-07
0.000121975
8.66417e-07
-0.000122716
-3.34681e-07
-2.52483e-09
0.000122584
6.32334e-07
1.42044e-07
-7.78178e-07
8.3641e-07
-3.28965e-07
-6.75691e-09
6.04035e-07
1.7362e-07
-0.00011733
0.000117415
-0.0001189
-2.20505e-09
0.000118741
1.62056e-07
-6.25373e-09
1.89627e-11
-0.000123268
-1.74081e-07
0.00012309
3.49712e-07
-0.000123268
-1.74091e-07
2.54647e-09
0.00012309
3.49724e-07
-3.45501e-11
-1.56474e-07
3.14907e-07
-1.56472e-07
6.65587e-09
3.14895e-07
-2.05894e-11
-0.000119308
0.000119131
-0.000119308
2.11729e-09
0.000119131
-4.15305e-11
6.13974e-09
-1.63634e-07
-0.000122716
-3.34566e-07
0.000122584
6.32372e-07
-0.000121947
-7.97412e-07
-2.59256e-07
0.000121975
8.65227e-07
-1.4254e-07
-3.28895e-07
6.0414e-07
-7.79302e-07
-2.70812e-07
8.36098e-07
-1.73769e-07
-0.0001189
0.000118741
-0.000117328
-1.05658e-06
0.000117413
-1.62079e-07
-1.06036e-06
4.2094e-07
-0.00012272
3.94903e-06
0.000122684
-4.59328e-06
-0.000124557
-3.37187e-06
0.000124092
4.25689e-06
3.55657e-07
4.03216e-06
-4.68775e-06
-3.4112e-06
4.27397e-06
2.67598e-06
-0.000117034
0.00011725
-0.000120664
0.000119968
2.61317e-06
-5.01608e-07
-0.000123667
-3.26512e-06
0.000123266
4.16827e-06
-0.000122591
3.75248e-06
2.22938e-07
0.000122456
-4.34263e-06
-4.62531e-07
-3.27863e-06
4.1655e-06
3.80786e-06
2.39684e-07
-4.42135e-06
-2.70966e-06
-0.000119359
0.000118804
-0.000117363
1.01769e-06
0.000117388
-2.67276e-06
1.02853e-06
1.85475e-07
-0.000121964
-8.29954e-07
0.000121912
9.1908e-07
-0.000122445
-3.44513e-07
4.98811e-09
0.000122291
6.79317e-07
1.74836e-07
-8.06518e-07
8.82942e-07
-3.35426e-07
1.43442e-09
6.48351e-07
1.78257e-07
-0.000117461
0.00011747
-0.000118581
4.58912e-09
0.00011841
1.76363e-07
1.55728e-09
-2.00132e-11
-0.000122901
-2.07221e-07
0.000122696
4.16999e-07
-0.000122901
-2.0723e-07
-5.02562e-09
0.000122696
4.17004e-07
3.38281e-11
-1.88551e-07
3.78988e-07
-1.88555e-07
-1.35836e-09
3.79005e-07
-7.3889e-11
-0.000118944
0.000118742
-0.000118944
-4.77742e-09
0.000118742
2.37648e-11
-1.4889e-09
-1.85528e-07
-0.000122445
-3.44635e-07
0.000122291
6.79431e-07
-0.000121963
-8.3009e-07
-2.23179e-07
0.000121912
9.19245e-07
-1.74867e-07
-3.3525e-07
6.48335e-07
-8.05607e-07
-2.3952e-07
8.8201e-07
-1.78823e-07
-0.000118581
0.00011841
-0.00011746
-1.01915e-06
0.000117471
-1.76214e-07
-1.02905e-06
5.02344e-07
-0.000122593
3.7575e-06
0.000122456
-4.3461e-06
-0.000123669
-3.2662e-06
0.000123266
4.17125e-06
4.62882e-07
3.81064e-06
-4.42165e-06
-3.28004e-06
4.16662e-06
2.70984e-06
-0.00011736
0.000117388
-0.000119361
0.000118804
2.67242e-06
-5.49075e-07
-0.000122881
-3.17688e-06
0.000122499
4.10753e-06
-0.000122288
3.57999e-06
1.89052e-07
0.000122085
-4.1156e-06
-5.23498e-07
-3.18458e-06
4.0929e-06
3.62816e-06
2.02338e-07
-4.18528e-06
-2.70273e-06
-0.000118302
0.000117828
-0.000117347
9.77249e-07
0.000117247
-2.6828e-06
9.8629e-07
1.95109e-07
-0.00012182
-8.68593e-07
0.000121691
9.91455e-07
-0.000122122
-3.64518e-07
1.09746e-08
0.000121934
7.36635e-07
1.89545e-07
-8.38741e-07
9.43738e-07
-3.49669e-07
8.12453e-09
6.99531e-07
1.78668e-07
-0.00011744
0.00011737
-0.00011823
1.03789e-08
0.000118034
1.77306e-07
7.77296e-09
-9.76075e-12
-0.000122479
-2.43135e-07
0.000122243
4.90105e-07
-0.000122479
-2.43116e-07
-1.09627e-08
0.000122243
4.90082e-07
-2.2361e-11
-2.22552e-07
4.48189e-07
-2.22542e-07
-8.17042e-09
4.4819e-07
8.83946e-12
-0.000118527
0.000118294
-0.000118527
-1.02769e-08
0.000118294
-1.56138e-11
-7.76453e-09
-1.95049e-07
-0.000122122
-3.64652e-07
0.000121934
7.36828e-07
-0.000121819
-8.69274e-07
-1.8851e-07
0.00012169
9.9196e-07
-1.89535e-07
-3.49861e-07
6.99714e-07
-8.3987e-07
-2.01794e-07
9.44512e-07
-1.78412e-07
-0.00011823
0.000118034
-0.000117441
-9.77861e-07
0.000117371
-1.77383e-07
-9.87665e-07
5.47961e-07
-0.000122288
3.58406e-06
0.000122086
-4.1183e-06
-0.000122879
-3.18094e-06
0.000122498
4.10973e-06
5.23217e-07
3.63067e-06
-4.18808e-06
-3.18391e-06
4.09396e-06
2.70479e-06
-0.000117349
0.00011725
-0.000118303
0.000117827
2.6826e-06
-5.74184e-07
-0.000122124
-3.11703e-06
0.000121743
4.07245e-06
-0.000121857
3.41893e-06
1.6951e-07
0.000121597
-3.90238e-06
-5.57256e-07
-3.11444e-06
4.04676e-06
3.46308e-06
1.76995e-07
-3.96934e-06
-2.6766e-06
-0.000117378
0.000116938
-0.000117097
9.37962e-07
0.000116901
-2.66513e-06
9.48091e-07
1.96851e-07
-0.000121532
-9.06212e-07
0.000121339
1.07204e-06
-0.000121728
-3.9313e-07
1.50635e-08
0.000121499
8.04092e-07
1.94738e-07
-8.79131e-07
1.01995e-06
-3.73984e-07
1.30921e-08
7.61246e-07
1.75973e-07
-0.000117264
0.00011712
-0.000117823
1.43395e-08
0.000117591
1.75154e-07
1.21546e-08
-9.44554e-12
-0.000121992
-2.82005e-07
0.00012172
5.69073e-07
-0.000121992
-2.81996e-07
-1.50473e-08
0.00012172
5.69062e-07
-1.23089e-11
-2.59534e-07
5.23536e-07
-2.59549e-07
-1.3069e-08
5.23525e-07
1.77926e-11
-0.000118047
0.000117779
-0.000118047
-1.42324e-08
0.000117779
-9.75714e-11
-1.23933e-08
-1.96907e-07
-0.000121728
-3.93246e-07
0.000121499
8.04284e-07
-0.000121532
-9.07624e-07
-1.69801e-07
0.00012134
1.07277e-06
-1.94703e-07
-3.74218e-07
7.61476e-07
-8.79929e-07
-1.77287e-07
1.02066e-06
-1.75654e-07
-0.000117823
0.000117591
-0.000117265
-9.38699e-07
0.00011712
-1.75781e-07
-9.4923e-07
5.74288e-07
-0.000121855
3.42393e-06
0.000121595
-3.90794e-06
-0.000122123
-3.12216e-06
0.000121743
4.07722e-06
5.57861e-07
3.46864e-06
-3.97302e-06
-3.11705e-06
4.0499e-06
2.68167e-06
-0.000117101
0.000116904
-0.000117379
0.000116938
2.66868e-06
-5.889e-07
-0.000121358
-3.06889e-06
0.000120961
4.05459e-06
-0.000121314
3.27063e-06
1.52371e-07
0.000120999
-3.69703e-06
-5.77594e-07
-3.05686e-06
4.0197e-06
3.30893e-06
1.59222e-07
-3.76253e-06
-2.64133e-06
-0.000116515
0.000116087
-0.000116667
9.00977e-07
0.000116395
-2.6336e-06
9.09924e-07
1.93732e-07
-0.000121117
-9.45554e-07
0.000120861
1.16037e-06
-0.000121249
-4.29967e-07
1.74211e-08
0.000120972
8.83415e-07
1.93992e-07
-9.16764e-07
1.10451e-06
-4.06395e-07
1.62664e-08
8.34051e-07
1.71322e-07
-0.000116942
0.000116726
-0.000117341
1.67551e-08
0.000117065
1.71042e-07
1.52245e-08
-6.97057e-11
-0.000121431
-3.24563e-07
0.000121118
6.5517e-07
-0.000121431
-3.24537e-07
-1.75579e-08
0.000121117
6.55137e-07
-5.43277e-11
-2.99791e-07
6.05204e-07
-2.99791e-07
-1.63405e-08
6.05182e-07
-8.73772e-11
-0.000117495
0.000117187
-0.000117495
-1.6886e-08
0.000117187
-9.80355e-11
-1.54366e-08
-1.93825e-07
-0.000121249
-4.29983e-07
0.000120972
8.83525e-07
-0.000121117
-9.45939e-07
-1.51644e-07
0.00012086
1.16098e-06
-1.93938e-07
-4.06513e-07
8.34134e-07
-9.17455e-07
-1.58237e-07
1.10477e-06
-1.71379e-07
-0.00011734
0.000117065
-0.000116941
-9.01137e-07
0.000116725
-1.71397e-07
-9.10094e-07
5.8675e-07
-0.000121315
3.2725e-06
0.000121004
-3.69996e-06
-0.000121357
-3.07257e-06
0.000120957
4.05859e-06
5.75396e-07
3.31078e-06
-3.76445e-06
-3.0605e-06
4.02178e-06
2.6444e-06
-0.000116668
0.000116395
-0.000116515
0.000116087
2.63717e-06
-5.92105e-07
-0.000120554
-3.03945e-06
0.000120126
4.05928e-06
-0.000120662
3.13041e-06
1.37066e-07
0.000120298
-3.49526e-06
-5.8534e-07
-3.02439e-06
4.01649e-06
3.17054e-06
1.42941e-07
-3.56242e-06
-2.59647e-06
-0.000115657
0.000115214
-0.000116096
8.6707e-07
0.000115763
-2.59434e-06
8.75179e-07
1.87461e-07
-0.000120576
-9.85643e-07
0.000120256
1.25471e-06
-0.000120672
-4.73158e-07
1.86267e-08
0.000120341
9.7257e-07
1.88997e-07
-9.56244e-07
1.19482e-06
-4.46439e-07
1.79637e-08
9.17824e-07
1.65164e-07
-0.000116479
0.000116195
-0.000116768
1.78448e-08
0.000116442
1.66084e-07
1.70785e-08
-1.0175e-10
-0.000120785
-3.71149e-07
0.000120425
7.49548e-07
-0.000120785
-3.71147e-07
-1.88786e-08
0.000120425
7.4953e-07
-7.7104e-11
-3.43932e-07
6.94471e-07
-3.43908e-07
-1.81439e-08
6.94447e-07
-1.56544e-10
-0.00011686
0.000116507
-0.00011686
-1.8248e-08
0.000116507
-5.65951e-11
-1.71685e-08
-1.87989e-07
-0.000120672
-4.7309e-07
0.000120341
9.72542e-07
-0.000120575
-9.84433e-07
-1.38183e-07
0.000120256
1.25389e-06
-1.89401e-07
-4.46297e-07
9.17851e-07
-9.55679e-07
-1.43526e-07
1.19453e-06
-1.65893e-07
-0.000116767
0.000116442
-0.000116479
-8.67503e-07
0.000116196
-1.65979e-07
-8.75034e-07
5.94021e-07
-0.000120667
3.14123e-06
0.000120296
-3.50234e-06
-0.000120552
-3.04935e-06
0.000120129
4.06633e-06
5.85565e-07
3.17622e-06
-3.56815e-06
-3.02814e-06
4.01962e-06
2.60168e-06
-0.000116097
0.000115769
-0.000115657
0.00011521
2.59888e-06
-5.92398e-07
-0.000119687
-3.02644e-06
0.000119224
4.0816e-06
-0.000119909
2.99969e-06
1.25579e-07
0.000119486
-3.2949e-06
-5.86523e-07
-2.99571e-06
4.02173e-06
3.03143e-06
1.29492e-07
-3.35854e-06
-2.55213e-06
-0.000114767
0.000114292
-0.000115404
8.3603e-07
0.000115016
-2.5482e-06
8.42374e-07
1.8039e-07
-0.000119908
-1.02867e-06
0.000119525
1.35738e-06
-0.000119986
-5.22405e-07
1.92166e-08
0.000119597
1.07232e-06
1.82236e-07
-9.96618e-07
1.29191e-06
-4.92106e-07
1.8818e-08
1.01098e-06
1.58537e-07
-0.000115881
0.00011553
-0.000116092
1.81285e-08
0.00011571
1.60374e-07
1.79643e-08
-1.86147e-11
-0.000120044
-4.22655e-07
0.000119632
8.54051e-07
-0.000120044
-4.2268e-07
-1.9258e-08
0.000119632
8.54059e-07
-6.6622e-11
-3.92342e-07
7.92584e-07
-3.92346e-07
-1.89978e-08
7.92581e-07
-5.51132e-11
-0.000116133
0.000115728
-0.000116133
-1.82401e-08
0.000115728
-4.56277e-11
-1.80933e-08
-1.80638e-07
-0.000119986
-5.22566e-07
0.000119597
1.07254e-06
-0.000119909
-1.02985e-06
-1.26611e-07
0.000119526
1.35822e-06
-1.82725e-07
-4.92096e-07
1.01109e-06
-9.96412e-07
-1.30999e-07
1.29156e-06
-1.58537e-07
-0.000116092
0.00011571
-0.000115882
-8.36875e-07
0.000115531
-1.60563e-07
-8.4336e-07
5.95725e-07
-0.000119905
2.99966e-06
0.000119483
-3.30003e-06
-0.000119688
-3.02553e-06
0.000119224
4.08565e-06
5.89925e-07
3.0413e-06
-3.37157e-06
-3.00372e-06
4.03397e-06
2.55691e-06
-0.000115413
0.000115019
-0.00011476
0.000114292
2.55417e-06
-5.9108e-07
-0.000118741
-3.01255e-06
0.000118231
4.11454e-06
-0.000119044
2.86107e-06
1.16194e-07
0.000118567
-3.09149e-06
-5.86371e-07
-2.98801e-06
4.05714e-06
2.90209e-06
1.1966e-07
-3.16537e-06
-2.50334e-06
-0.000113807
0.000113298
-0.000114601
8.07998e-07
0.00011415
-2.50276e-06
8.14078e-07
1.71993e-07
-0.000119114
-1.07662e-06
0.000118666
1.46906e-06
-0.000119182
-5.77088e-07
1.89069e-08
0.000118731
1.18142e-06
1.74433e-07
-1.04165e-06
1.39753e-06
-5.437e-07
1.89538e-08
1.11431e-06
1.51908e-07
-0.000115147
0.000114727
-0.000115303
1.78586e-08
0.00011486
1.54482e-07
1.79789e-08
-5.16455e-11
-0.000119196
-4.78776e-07
0.000118726
9.67831e-07
-0.000119196
-4.78727e-07
-1.8919e-08
0.000118726
9.67779e-07
-4.49486e-11
-4.45675e-07
9.00624e-07
-4.45756e-07
-1.89706e-08
9.0063e-07
2.24913e-10
-0.000115301
0.00011484
-0.000115301
-1.69952e-08
0.00011484
-2.69181e-10
-1.88038e-08
-1.71945e-07
-0.000119182
-5.76911e-07
0.000118731
1.18144e-06
-0.000119115
-1.07706e-06
-1.15672e-07
0.000118666
1.46959e-06
-1.74239e-07
-5.44071e-07
1.11445e-06
-1.04162e-06
-1.1946e-07
1.39793e-06
-1.49239e-07
-0.000115304
0.000114859
-0.000115147
-8.07321e-07
0.000114728
-1.5664e-07
-8.14871e-07
5.90742e-07
-0.000119039
2.86417e-06
0.000118562
-3.09334e-06
-0.000118743
-3.01674e-06
0.000118232
4.11853e-06
5.86629e-07
2.90355e-06
-3.16552e-06
-2.98861e-06
4.05634e-06
2.50539e-06
-0.000114602
0.000114154
-0.000113808
0.000113297
2.50516e-06
-5.87761e-07
-0.0001177
-3.01027e-06
0.000117136
4.16217e-06
-0.000118063
2.7248e-06
1.08522e-07
0.000117522
-2.87947e-06
-5.8298e-07
-2.97779e-06
4.09158e-06
2.76553e-06
1.10973e-07
-2.95601e-06
-2.45377e-06
-0.000112773
0.000112216
-0.000113676
7.80699e-07
0.000113167
-2.45289e-06
7.86763e-07
1.63919e-07
-0.000118188
-1.12757e-06
0.000117671
1.58977e-06
-0.000118251
-6.36742e-07
1.82482e-08
0.000117733
1.30104e-06
1.66002e-07
-1.08962e-06
1.51219e-06
-6.00447e-07
1.83888e-08
1.22729e-06
1.43661e-07
-0.000114275
0.000113784
-0.000114391
1.65886e-08
0.000113882
1.49495e-07
1.77714e-08
-8.83485e-11
-0.00011823
-5.39971e-07
0.000117696
1.09203e-06
-0.00011823
-5.39918e-07
-1.83404e-08
0.000117696
1.09195e-06
-1.59395e-10
-5.03779e-07
1.01825e-06
-5.03856e-07
-1.86158e-08
1.01819e-06
1.73842e-10
-0.000114354
0.000113831
-0.000114354
-1.58724e-08
0.000113831
-4.84099e-10
-1.91528e-08
-1.63965e-07
-0.000118252
-6.36743e-07
0.000117733
1.30117e-06
-0.000118189
-1.12837e-06
-1.08151e-07
0.000117671
1.59025e-06
-1.65718e-07
-6.01158e-07
1.22741e-06
-1.0902e-06
-1.10603e-07
1.51296e-06
-1.41501e-07
-0.000114392
0.000113881
-0.000114273
-7.80971e-07
0.000113784
-1.53348e-07
-7.88371e-07
5.88964e-07
-0.000118064
2.72168e-06
0.000117528
-2.88268e-06
-0.000117698
-3.0079e-06
0.000117131
4.16426e-06
5.83915e-07
2.76348e-06
-2.95995e-06
-2.97717e-06
4.09462e-06
2.45372e-06
-0.000113674
0.000113161
-0.000112774
0.00011222
2.45439e-06
-5.83555e-07
-0.000116546
-3.00721e-06
0.000115918
4.21881e-06
-0.00011696
2.57446e-06
1.02094e-07
0.000116357
-2.65637e-06
-5.79786e-07
-2.97697e-06
4.14646e-06
2.62266e-06
1.0414e-07
-2.74522e-06
-2.40152e-06
-0.000111642
0.000111037
-0.000112624
7.56023e-07
0.000112041
-2.40287e-06
7.62731e-07
1.55742e-07
-0.000117123
-1.18353e-06
0.000116533
1.71962e-06
-0.000117185
-7.01658e-07
1.72681e-08
0.000116594
1.43069e-06
1.57812e-07
-1.1426e-06
1.63661e-06
-6.62796e-07
1.76538e-08
1.35101e-06
1.36188e-07
-0.000113258
0.000112694
-0.000113347
1.51605e-08
0.000112767
1.46097e-07
1.77272e-08
-2.85864e-11
-0.000117135
-6.05982e-07
0.000116532
1.22582e-06
-0.000117135
-6.05958e-07
-1.72435e-08
0.000116532
1.22577e-06
-7.81358e-11
-5.6699e-07
1.14619e-06
-5.67032e-07
-1.77012e-08
1.14613e-06
7.32075e-11
-0.000113282
0.000112691
-0.000113282
-1.48515e-08
0.000112691
-1.89844e-10
-1.83325e-08
-1.55693e-07
-0.000117185
-7.01663e-07
0.000116594
1.43079e-06
-0.000117123
-1.18332e-06
-1.03025e-07
0.000116534
1.71999e-06
-1.57592e-07
-6.63162e-07
1.35115e-06
-1.14199e-06
-1.04678e-07
1.63699e-06
-1.35166e-07
-0.000113348
0.000112766
-0.000113258
-7.55729e-07
0.000112695
-1.48103e-07
-7.64021e-07
5.84019e-07
-0.000116961
2.5796e-06
0.000116353
-2.65892e-06
-0.000116543
-3.01448e-06
0.000115918
4.22378e-06
5.8057e-07
2.62643e-06
-2.74513e-06
-2.97904e-06
4.1476e-06
2.40358e-06
-0.000112621
0.000112041
-0.000111643
0.000111032
2.40267e-06
-5.7575e-07
-0.000115264
-3.02455e-06
0.00011457
4.2948e-06
-0.000115718
2.432e-06
9.61655e-08
0.000115035
-2.4208e-06
-5.74466e-07
-2.981e-06
4.20904e-06
2.47935e-06
9.83444e-08
-2.51335e-06
-2.3496e-06
-0.000110408
0.000109733
-0.000111428
7.33914e-07
0.000110776
-2.35266e-06
7.39478e-07
1.47322e-07
-0.000115912
-1.24323e-06
0.000115245
1.8589e-06
-0.000115972
-7.72144e-07
1.60474e-08
0.000115305
1.57084e-06
1.49602e-07
-1.20006e-06
1.77045e-06
-7.30012e-07
1.65537e-08
1.48493e-06
1.319e-07
-0.000112093
0.000111452
-0.00011216
1.44803e-08
0.000111506
1.40441e-07
1.6725e-08
-6.53207e-11
-0.0001159
-6.77474e-07
0.000115223
1.37062e-06
-0.0001159
-6.77387e-07
-1.61798e-08
0.000115223
1.37052e-06
-5.65628e-11
-6.35167e-07
1.28432e-06
-6.35155e-07
-1.6641e-08
1.28426e-06
1.3228e-10
-0.000112072
0.000111409
-0.000112072
-1.39492e-08
0.000111409
-8.15495e-11
-1.69945e-08
-1.47702e-07
-0.000115972
-7.7189e-07
0.000115305
1.57079e-06
-0.000115912
-1.24309e-06
-9.65727e-08
0.000115245
1.8588e-06
-1.49736e-07
-7.30112e-07
1.48501e-06
-1.19946e-06
-9.90444e-08
1.77017e-06
-1.30277e-07
-0.000112161
0.000111505
-0.000112094
-7.32926e-07
0.000111454
-1.41294e-07
-7.39487e-07
5.76746e-07
-0.000115717
2.42929e-06
0.000115035
-2.42111e-06
-0.000115265
-3.02156e-06
0.00011457
4.29324e-06
5.74982e-07
2.48175e-06
-2.51922e-06
-2.98507e-06
4.21305e-06
2.34865e-06
-0.000111431
0.000110779
-0.0001104
0.000109727
2.35261e-06
-5.68316e-07
-0.000113844
-3.04036e-06
0.000113073
4.379e-06
-0.000114326
2.27729e-06
9.11957e-08
0.000113569
-2.18001e-06
-5.65986e-07
-2.99862e-06
4.29067e-06
2.32948e-06
9.24499e-08
-2.27942e-06
-2.29765e-06
-0.000109034
0.000108291
-0.00011009
7.13082e-07
0.000109357
-2.29904e-06
7.16712e-07
1.39395e-07
-0.000114546
-1.30735e-06
0.000113799
2.00625e-06
-0.000114605
-8.47203e-07
1.48445e-08
0.000113856
1.7201e-06
1.41746e-07
-1.26191e-06
1.91192e-06
-8.01351e-07
1.52944e-08
1.62795e-06
1.28957e-07
-0.000110775
0.000110052
-0.000110821
1.39167e-08
0.000110089
1.31589e-07
1.46197e-08
-1.40428e-10
-0.000114514
-7.53735e-07
0.000113757
1.52505e-06
-0.000114514
-7.53723e-07
-1.50527e-08
0.000113757
1.52495e-06
-1.37536e-10
-7.08003e-07
1.43226e-06
-7.07991e-07
-1.55145e-08
1.43216e-06
-2.27457e-10
-0.000110716
0.000109976
-0.000110716
-1.45267e-08
0.000109977
-2.21742e-10
-1.51737e-08
-1.39371e-07
-0.000114605
-8.4725e-07
0.000113856
1.71989e-06
-0.000114546
-1.30696e-06
-9.19595e-08
0.000113799
2.00652e-06
-1.4181e-07
-8.01412e-07
1.6278e-06
-1.26187e-06
-9.29808e-08
1.91233e-06
-1.30397e-07
-0.000110821
0.00011009
-0.000110776
-7.12672e-07
0.000110051
-1.32655e-07
-7.16767e-07
5.69597e-07
-0.000114327
2.27666e-06
0.000113569
-2.18005e-06
-0.000113843
-3.04088e-06
0.000113074
4.37975e-06
5.67156e-07
2.32636e-06
-2.27796e-06
-2.99489e-06
4.28835e-06
2.29814e-06
-0.000110089
0.000109355
-0.000109032
0.000108289
2.29943e-06
-5.6148e-07
-0.000112272
-3.06924e-06
0.000111423
4.48033e-06
-0.000112781
2.12211e-06
8.79673e-08
0.000111942
-1.93319e-06
-5.5974e-07
-3.02254e-06
4.38349e-06
2.17898e-06
8.87593e-08
-2.03858e-06
-2.24984e-06
-0.000107521
0.000106701
-0.000108588
6.9148e-07
0.000107769
-2.25194e-06
6.95979e-07
1.32136e-07
-0.000113018
-1.37673e-06
0.000112187
2.16342e-06
-0.000113073
-9.2648e-07
1.36371e-08
0.000112239
1.87918e-06
1.34419e-07
-1.32858e-06
2.06336e-06
-8.77824e-07
1.41386e-08
1.78116e-06
1.22137e-07
-0.000109294
0.000108487
-0.000109323
1.22583e-08
0.000108507
1.25402e-07
1.33387e-08
-1.12009e-10
-0.000112967
-8.34657e-07
0.000112126
1.68937e-06
-0.000112967
-8.34695e-07
-1.3823e-08
0.000112126
1.6893e-06
-6.2779e-11
-7.85975e-07
1.59061e-06
-7.85857e-07
-1.42217e-08
1.59051e-06
-4.50166e-10
-0.000109204
0.000108382
-0.000109203
-1.37025e-08
0.000108382
2.44604e-10
-1.23039e-08
-1.32043e-07
-0.000113073
-9.26767e-07
0.000112239
1.879e-06
-0.000113019
-1.37598e-06
-8.86253e-08
0.000112188
2.16353e-06
-1.34665e-07
-8.77255e-07
1.7809e-06
-1.32817e-06
-8.93629e-08
2.06325e-06
-1.26567e-07
-0.000109322
0.000108508
-0.000109295
-6.92099e-07
0.000108485
-1.21687e-07
-6.93916e-07
5.62302e-07
-0.000112779
2.11692e-06
0.000111942
-1.93116e-06
-0.000112274
-3.06451e-06
0.000111424
4.47684e-06
5.60791e-07
2.17809e-06
-2.03823e-06
-3.02204e-06
4.3832e-06
2.24678e-06
-0.000108588
0.000107766
-0.000107518
0.0001067
2.25105e-06
-5.52775e-07
-0.00011054
-3.10373e-06
0.000109603
4.59366e-06
-0.00011107
1.97224e-06
8.50238e-08
0.000110144
-1.68355e-06
-5.51385e-07
-3.05446e-06
4.48868e-06
2.02531e-06
8.55133e-08
-1.79055e-06
-2.19983e-06
-0.000105849
0.000104945
-0.000106916
6.71323e-07
0.000106017
-2.20212e-06
6.75453e-07
1.24977e-07
-0.000111321
-1.44967e-06
0.000110399
2.33089e-06
-0.000111369
-1.00998e-06
1.24641e-08
0.000110445
2.04695e-06
1.271e-07
-1.39835e-06
2.22348e-06
-9.58616e-07
1.29915e-08
1.94267e-06
1.16219e-07
-0.000107642
0.000106747
-0.000107657
1.09041e-08
0.000106753
1.2191e-07
1.26629e-08
-6.4157e-11
-0.00011125
-9.1976e-07
0.00011032
1.86227e-06
-0.00011125
-9.19805e-07
-1.25661e-08
0.00011032
1.86225e-06
-1.99537e-11
-8.68122e-07
1.75726e-06
-8.68007e-07
-1.30144e-08
1.7572e-06
-2.84339e-10
-0.000107526
0.000106617
-0.000107526
-1.19002e-08
0.000106617
3.64506e-10
-1.12951e-08
-1.24822e-07
-0.000111369
-1.01022e-06
0.000110445
2.04689e-06
-0.000111321
-1.44911e-06
-8.51874e-08
0.0001104
2.33114e-06
-1.27381e-07
-9.57969e-07
1.94249e-06
-1.39868e-06
-8.59057e-08
2.22355e-06
-1.19473e-07
-0.000107656
0.000106753
-0.000107643
-6.71564e-07
0.000106746
-1.17085e-07
-6.73597e-07
5.53013e-07
-0.000111072
1.96881e-06
0.000110145
-1.68058e-06
-0.000110539
-3.10106e-06
0.000109601
4.59221e-06
5.51997e-07
2.0212e-06
-1.78904e-06
-3.05028e-06
4.48661e-06
2.19639e-06
-0.000106914
0.000106015
-0.000105849
0.000104945
2.19939e-06
-5.44654e-07
-0.000108629
-3.14696e-06
0.000107601
4.7198e-06
-0.000109183
1.8291e-06
8.23873e-08
0.000108165
-1.43766e-06
-5.43396e-07
-3.09175e-06
4.6083e-06
1.88119e-06
8.29326e-08
-1.5466e-06
-2.15134e-06
-0.000104007
0.000103011
-0.000105088
6.53629e-07
0.000104112
-2.15393e-06
6.56278e-07
1.17757e-07
-0.000109442
-1.52654e-06
0.000108427
2.50552e-06
-0.000109484
-1.09744e-06
1.12974e-08
0.000108465
2.22204e-06
1.20052e-07
-1.47278e-06
2.39343e-06
-1.04313e-06
1.1785e-08
2.11261e-06
1.12834e-07
-0.000105815
0.00010483
-0.000105814
1.01732e-08
0.000104819