/*--------------------------------*- C++ -*----------------------------------*\
  =========                 |
  \\      /  F ield         | OpenFOAM: The Open Source CFD Toolbox
   \\    /   O peration     | Website:  https://openfoam.org
    \\  /    A nd           | Version:  9
     \\/     M anipulation  |
\*---------------------------------------------------------------------------*/
FoamFile
{
    format      ascii;
    class       volVectorField;
    location    "0.5";
    object      U;
}
// * * * * * * * * * * * * * * * * * * * * * * * * * * * * * * * * * * * * * //

dimensions      [0 1 -1 0 0 0 0];

internalField   nonuniform List<vector> 
36360
(
(0.00067821 -0.271553 -0.991989)
(-0.00444637 -0.195262 0.000325951)
(-0.00307921 -0.271424 -1.00276)
(-0.00350191 -0.185302 6.07317e-05)
(-0.00204585 -0.256909 -0.998224)
(0.0175427 -0.209708 4.28043e-05)
(-0.00326467 -0.253448 -1.00361)
(0.0233807 -0.221719 7.40128e-05)
(-0.00290814 -0.228062 -0.000225042)
(-0.00283762 -0.233285 3.00747e-06)
(-0.00369225 -0.226651 -7.00229e-05)
(-0.00305435 -0.230855 6.63095e-06)
(0.00687034 -0.233434 -3.6082e-05)
(0.00593231 -0.232678 -2.14211e-06)
(0.0095484 -0.236382 -9.58814e-05)
(0.00891311 -0.235352 -1.52049e-06)
(-0.00274856 -0.233096 1.40632e-06)
(-0.00274857 -0.233096 -1.39426e-06)
(-0.00299086 -0.230714 4.44057e-07)
(-0.00299087 -0.230714 -4.40457e-07)
(0.0059342 -0.231998 -5.34328e-07)
(0.0059342 -0.231998 5.45143e-07)
(0.00887848 -0.234729 -4.96524e-08)
(0.00887848 -0.234729 5.34505e-08)
(-0.00283768 -0.233285 -2.98393e-06)
(-0.00290886 -0.228062 0.000225062)
(-0.00305437 -0.230855 -6.62645e-06)
(-0.00369257 -0.226651 7.00146e-05)
(0.00593231 -0.232678 2.16947e-06)
(0.00687021 -0.233434 3.61225e-05)
(0.00891311 -0.235352 1.52621e-06)
(0.00954836 -0.236382 9.58751e-05)
(-0.00444836 -0.195263 -0.000325973)
(0.000677905 -0.27155 0.991989)
(-0.00350411 -0.185302 -6.0742e-05)
(-0.00308045 -0.271423 1.00276)
(0.0175421 -0.209711 -4.30065e-05)
(-0.00204681 -0.256904 0.998224)
(0.02338 -0.221719 -7.40641e-05)
(-0.00326385 -0.253445 1.00361)
(0.00721775 -0.257346 -0.982187)
(-0.00940753 -0.216934 0.0006875)
(0.00551331 -0.264252 -0.987716)
(-0.00644918 -0.208845 0.000592444)
(0.0010449 -0.254072 -0.992596)
(0.00536066 -0.19835 -0.000115646)
(0.000974189 -0.257613 -0.99759)
(0.0122752 -0.198721 -3.49306e-05)
(0.000714149 -0.229663 -0.000273757)
(-0.000415177 -0.236258 -3.12754e-05)
(-0.000380444 -0.229394 -0.000299342)
(-0.00133691 -0.23606 -1.35011e-05)
(0.00544633 -0.225733 0.000164472)
(0.00162802 -0.228627 -1.75278e-05)
(0.00609973 -0.228497 5.31726e-05)
(0.00326248 -0.229268 -9.94772e-06)
(-0.000520259 -0.23655 -2.15722e-06)
(-0.000520271 -0.23655 2.17489e-06)
(-0.0013251 -0.236049 7.33834e-07)
(-0.00132511 -0.236049 -7.05237e-07)
(0.00141999 -0.228015 -5.08548e-06)
(0.00141999 -0.228015 5.12084e-06)
(0.00317272 -0.228581 -2.23739e-06)
(0.00317272 -0.228581 2.26486e-06)
(-0.00041531 -0.236258 3.14117e-05)
(0.000714208 -0.229664 0.000274026)
(-0.00133695 -0.23606 1.35608e-05)
(-0.000381048 -0.229396 0.00029946)
(0.00162792 -0.228627 1.76289e-05)
(0.0054453 -0.225733 -0.000164014)
(0.00326248 -0.229268 1.00143e-05)
(0.00609977 -0.228498 -5.28781e-05)
(-0.00938762 -0.216936 -0.000687498)
(0.00719253 -0.257349 0.982171)
(-0.00645084 -0.208847 -0.000592467)
(0.00552311 -0.264255 0.987724)
(0.00535515 -0.198349 0.000115727)
(0.00106948 -0.254013 0.991759)
(0.0122764 -0.198726 3.47386e-05)
(0.000981443 -0.257623 0.997264)
(0.00988623 -0.249516 -0.977104)
(-0.0136105 -0.225853 0.000536756)
(0.00875174 -0.253088 -0.978827)
(-0.012057 -0.222261 0.000639272)
(0.00318382 -0.248134 -0.997292)
(-0.00307388 -0.204624 -0.000377065)
(0.00200502 -0.250969 -0.994135)
(-0.000193315 -0.20081 -0.000235572)
(0.000662499 -0.229858 -9.36138e-05)
(0.000227079 -0.235448 -3.59939e-05)
(0.000795107 -0.229786 -0.000191616)
(-7.14536e-06 -0.235851 -3.94507e-05)
(0.00357921 -0.222613 0.000442611)
(0.000285121 -0.228317 -7.70603e-06)
(0.00433295 -0.223847 0.000303972)
(0.000645169 -0.228536 -1.65874e-05)
(-1.94878e-05 -0.236165 -1.04606e-05)
(-1.95027e-05 -0.236165 1.04971e-05)
(-0.000193449 -0.236361 -6.6264e-06)
(-0.000193443 -0.236361 6.14758e-06)
(-3.85778e-05 -0.228142 -1.09538e-05)
(-3.85876e-05 -0.228142 1.0998e-05)
(0.000356163 -0.22814 -8.27185e-06)
(0.000356064 -0.22814 8.29538e-06)
(0.000226832 -0.235448 3.61097e-05)
(0.000661945 -0.229857 9.37235e-05)
(-7.15546e-06 -0.235851 4.04823e-05)
(0.00079512 -0.229786 0.000192298)
(0.000285091 -0.228317 7.80535e-06)
(0.00357916 -0.222613 -0.000442388)
(0.000644967 -0.228536 1.68151e-05)
(0.00433181 -0.223847 -0.000303453)
(-0.0136099 -0.225853 -0.000536722)
(0.00989089 -0.249516 0.977102)
(-0.0120352 -0.222261 -0.000639565)
(0.00871626 -0.253091 0.978826)
(-0.00307296 -0.204628 0.000376751)
(0.00318532 -0.248146 0.997291)
(-0.00020406 -0.200811 0.000235393)
(0.00198358 -0.251018 0.993608)
(0.0110753 -0.244151 -0.975654)
(-0.0144257 -0.230116 0.000303194)
(0.0106398 -0.24653 -0.976066)
(-0.0142643 -0.228334 0.000418691)
(0.00461058 -0.241619 -0.99692)
(-0.00441769 -0.2126 -0.00064415)
(0.00409452 -0.244937 -0.997035)
(-0.00417024 -0.208796 -0.000517656)
(0.000400213 -0.230218 7.67098e-05)
(0.000508911 -0.234678 -4.01685e-06)
(0.000506421 -0.229995 -6.87105e-07)
(0.000391419 -0.235057 -2.24425e-05)
(0.00301534 -0.221756 0.000649059)
(0.000325878 -0.227753 2.47406e-05)
(0.00319934 -0.221975 0.000559005)
(0.00025177 -0.228069 6.9943e-06)
(0.000161312 -0.235725 -1.44152e-05)
(0.000161168 -0.235725 1.44699e-05)
(8.74643e-05 -0.235972 -1.31758e-05)
(8.74598e-05 -0.235972 1.32207e-05)
(-4.03187e-05 -0.228031 -1.34747e-05)
(-4.03551e-05 -0.228031 1.34978e-05)
(-8.4517e-05 -0.228094 -1.27181e-05)
(-8.45321e-05 -0.228094 1.27538e-05)
(0.000509182 -0.234678 4.15803e-06)
(0.000400178 -0.230218 -7.67505e-05)
(0.000391152 -0.235057 2.25156e-05)
(0.000505736 -0.229994 6.85463e-07)
(0.000325709 -0.227753 -2.46952e-05)
(0.0030144 -0.221757 -0.000649052)
(0.000251676 -0.228069 -6.93071e-06)
(0.00319889 -0.221975 -0.000558972)
(-0.0144276 -0.230115 -0.000303206)
(0.011073 -0.244153 0.975652)
(-0.0142636 -0.228331 -0.000418707)
(0.0106452 -0.246527 0.976065)
(-0.00441919 -0.2126 0.000644161)
(0.00461012 -0.241622 0.99692)
(-0.00416866 -0.208788 0.000517517)
(0.00410456 -0.244919 0.997035)
(0.0112812 -0.240661 -0.975155)
(-0.0141997 -0.23219 0.000107425)
(0.0112485 -0.242255 -0.97527)
(-0.0143577 -0.231367 0.000198132)
(0.00473631 -0.235912 -0.99677)
(-0.00400137 -0.218156 -0.000847054)
(0.00476726 -0.238601 -0.996817)
(-0.00425662 -0.215743 -0.000753847)
(0.00028695 -0.230871 0.000177275)
(0.000627517 -0.23406 3.52389e-05)
(0.000328871 -0.230521 0.000135066)
(0.000583189 -0.234349 1.61017e-05)
(0.00274097 -0.221996 0.000760604)
(0.000426778 -0.227058 6.13998e-05)
(0.00285227 -0.221796 0.000714636)
(0.000390626 -0.22741 4.33321e-05)
(0.00026673 -0.23522 -1.31882e-05)
(0.000266705 -0.23522 1.30997e-05)
(0.00021955 -0.235469 -1.44234e-05)
(0.00021956 -0.235469 1.43919e-05)
(8.40235e-05 -0.227662 -1.19708e-05)
(8.40069e-05 -0.227661 1.19204e-05)
(3.77077e-05 -0.227868 -1.32441e-05)
(3.76929e-05 -0.227868 1.32236e-05)
(0.000627475 -0.23406 -3.53202e-05)
(0.000286981 -0.230872 -0.000177434)
(0.000583218 -0.234349 -1.61248e-05)
(0.000328694 -0.23052 -0.000135199)
(0.000426745 -0.227058 -6.13557e-05)
(0.00274188 -0.221997 -0.00076043)
(0.00039047 -0.22741 -4.33152e-05)
(0.00285175 -0.221798 -0.000714652)
(-0.0142002 -0.232188 -0.000107458)
(0.0112771 -0.24066 0.975153)
(-0.0143605 -0.231364 -0.000198164)
(0.0112435 -0.242258 0.975268)
(-0.00399685 -0.218156 0.000846859)
(0.00473172 -0.235913 0.99677)
(-0.00425728 -0.215746 0.000753845)
(0.00476079 -0.238609 0.996817)
(0.0111629 -0.238141 -0.971924)
(-0.0138169 -0.233032 -3.36291e-05)
(0.0112373 -0.239311 -0.97488)
(-0.0140105 -0.232729 3.08005e-05)
(0.00446685 -0.231647 -0.996666)
(-0.0034983 -0.221194 -0.000990586)
(0.00460477 -0.23359 -0.996696)
(-0.00372871 -0.219934 -0.000925147)
(0.000281077 -0.231466 0.000225355)
(0.000678004 -0.233532 6.64323e-05)
(0.000273461 -0.2312 0.000206547)
(0.00065616 -0.233791 5.22057e-05)
(0.00267486 -0.222566 0.000810549)
(0.000453844 -0.226379 9.2254e-05)
(0.00268841 -0.222277 0.000791326)
(0.000445555 -0.226711 7.78786e-05)
(0.00035897 -0.234674 -7.75169e-06)
(0.000358903 -0.234674 7.62622e-06)
(0.000312272 -0.234957 -1.08663e-05)
(0.000312217 -0.234957 1.07777e-05)
(0.000132141 -0.22714 -7.12808e-06)
(0.000132124 -0.22714 6.99081e-06)
(0.000111532 -0.227416 -9.82789e-06)
(0.000111513 -0.227416 9.74635e-06)
(0.000677558 -0.233532 -6.64169e-05)
(0.000280699 -0.231466 -0.00022478)
(0.000655921 -0.233791 -5.22076e-05)
(0.000272949 -0.231201 -0.000206278)
(0.000453828 -0.226379 -9.22606e-05)
(0.00267734 -0.222566 -0.000810106)
(0.000445402 -0.226711 -7.78107e-05)
(0.00268757 -0.222278 -0.000790892)
(-0.0138151 -0.233025 3.34545e-05)
(0.0111623 -0.238141 0.972469)
(-0.0140114 -0.232724 -3.06891e-05)
(0.0112334 -0.239318 0.972525)
(-0.00347573 -0.221198 0.000989501)
(0.00444937 -0.231661 0.996668)
(-0.00373145 -0.219939 0.00092498)
(0.00460336 -0.2336 0.996696)
(0.011033 -0.236196 -0.973364)
(-0.0134641 -0.233138 -0.000131961)
(0.0110922 -0.237138 -0.971616)
(-0.0136347 -0.233157 -8.71605e-05)
(0.00422979 -0.228576 -0.996574)
(-0.00314737 -0.222602 -0.00108906)
(0.00434648 -0.229995 -0.9966)
(-0.00331695 -0.222057 -0.00104445)
(0.000337429 -0.231743 0.000242629)
(0.000728404 -0.23304 8.89711e-05)
(0.000302892 -0.231649 0.000236498)
(0.0007013 -0.233285 7.84093e-05)
(0.00272014 -0.223018 0.000826956)
(0.000460085 -0.225761 0.000115195)
(0.0026887 -0.222822 0.000821662)
(0.000456068 -0.226064 0.000104671)
(0.000450646 -0.234043 -1.69063e-06)
(0.000450659 -0.234043 1.72001e-06)
(0.000404949 -0.234369 -4.56589e-06)
(0.000404925 -0.234369 4.4516e-06)
(0.000166736 -0.226519 -1.49647e-06)
(0.000166742 -0.226519 1.4053e-06)
(0.00014988 -0.226841 -4.22702e-06)
(0.000149889 -0.226841 4.09035e-06)
(0.000728304 -0.23304 -8.89107e-05)
(0.000335257 -0.231743 -0.000241991)
(0.000701188 -0.233285 -7.84957e-05)
(0.000302524 -0.231651 -0.00023587)
(0.000460025 -0.225761 -0.000115355)
(0.00271998 -0.223014 -0.000826977)
(0.000456235 -0.226064 -0.000104763)
(0.00269261 -0.222819 -0.00082139)
(-0.0134696 -0.233145 0.000131889)
(0.0110424 -0.236189 0.97451)
(-0.0136345 -0.233161 8.66262e-05)
(0.0110954 -0.237148 0.974573)
(-0.00313681 -0.222591 0.00108798)
(0.00422617 -0.22861 0.996575)
(-0.0032931 -0.222047 0.00104293)
(0.00433124 -0.229995 0.996602)
(0.0109803 -0.234571 -0.968871)
(-0.0131721 -0.232805 -0.000201603)
(0.0109962 -0.235384 -0.971839)
(-0.0133103 -0.233026 -0.000169538)
(0.0041073 -0.226253 -0.996482)
(-0.00294782 -0.223027 -0.00115861)
(0.00415603 -0.227352 -0.996506)
(-0.0030332 -0.222911 -0.00112652)
(0.000421714 -0.2317 0.000243419)
(0.000791507 -0.232504 0.00010444)
(0.000380508 -0.231757 0.000244027)
(0.000758009 -0.232783 9.75898e-05)
(0.00279408 -0.223193 0.000825122)
(0.000471884 -0.225144 0.000131462)
(0.00275706 -0.223143 0.000827761)
(0.000465225 -0.225458 0.00012379)
(0.000548374 -0.23332 3.41184e-06)
(0.000548381 -0.23332 -3.45614e-06)
(0.000498287 -0.233694 1.00649e-06)
(0.0004983 -0.233694 -9.08965e-07)
(0.000201804 -0.225804 3.0935e-06)
(0.000201808 -0.225804 -3.31925e-06)
(0.000183913 -0.226174 1.07808e-06)
(0.00018391 -0.226174 -1.00747e-06)
(0.000791749 -0.232505 -0.000104465)
(0.000422306 -0.231699 -0.000243444)
(0.000757767 -0.232783 -9.75021e-05)
(0.000378881 -0.231756 -0.000243878)
(0.000471916 -0.225144 -0.00013139)
(0.00279412 -0.223194 -0.000826167)
(0.000464978 -0.225458 -0.000124074)
(0.00275492 -0.22314 -0.000828447)
(-0.0131762 -0.232801 0.000201197)
(0.0109793 -0.23457 0.974167)
(-0.0133133 -0.23304 0.000169528)
(0.0109986 -0.235392 0.974238)
(-0.00296582 -0.223027 0.00115791)
(0.00412228 -0.22627 0.99648)
(-0.00304395 -0.222898 0.00112593)
(0.0041606 -0.227334 0.996506)
(0.0109811 -0.2331 -0.97384)
(-0.0129155 -0.232162 -0.00025177)
(0.0109717 -0.233856 -0.969814)
(-0.0130409 -0.232522 -0.000228802)
(0.00400016 -0.224319 -0.992808)
(-0.00278879 -0.222883 -0.00120785)
(0.00404901 -0.225246 -0.996413)
(-0.00286694 -0.223011 -0.00118409)
(0.000537211 -0.231348 0.000238069)
(0.00087624 -0.231859 0.000114059)
(0.000475984 -0.23156 0.000241889)
(0.000831077 -0.232198 0.000109838)
(0.00287802 -0.22308 0.000816392)
(0.000494267 -0.224454 0.000141023)
(0.00283094 -0.223177 0.000819561)
(0.000481542 -0.224811 0.00013659)
(0.000657835 -0.232489 7.67351e-06)
(0.000657794 -0.232489 -7.67066e-06)
(0.000601557 -0.23292 5.67557e-06)
(0.000601543 -0.23292 -5.72635e-06)
(0.000240765 -0.224983 7.25571e-06)
(0.00024075 -0.224983 -7.16665e-06)
(0.000220777 -0.225408 5.42126e-06)
(0.000220772 -0.225408 -5.4314e-06)
(0.000876533 -0.231859 -0.000113991)
(0.000537945 -0.231347 -0.00023763)
(0.000831485 -0.232199 -0.000109823)
(0.000477757 -0.23156 -0.000241427)
(0.000494455 -0.224454 -0.000140975)
(0.00287963 -0.223081 -0.00081678)
(0.000481739 -0.224811 -0.000136632)
(0.00283309 -0.223178 -0.000820751)
(-0.0129222 -0.232168 0.00025137)
(0.0109848 -0.233096 0.973829)
(-0.0130486 -0.232517 0.000228275)
(0.0109711 -0.233855 0.973888)
(-0.00280182 -0.222888 0.00120558)
(0.00401713 -0.224343 0.996392)
(-0.00287336 -0.223012 0.00118329)
(0.00405162 -0.225232 0.996413)
(0.0110456 -0.231661 -0.967551)
(-0.0126905 -0.231286 -0.000289811)
(0.011008 -0.232414 -0.969902)
(-0.0128029 -0.231761 -0.000271971)
(0.00392666 -0.222595 -0.992564)
(-0.0026317 -0.222306 -0.00124288)
(0.00396329 -0.223458 -0.99267)
(-0.00270869 -0.22264 -0.00122741)
(0.000663667 -0.23074 0.000228833)
(0.000982188 -0.231073 0.000119244)
(0.000598004 -0.231077 0.000233485)
(0.00092629 -0.231487 0.000117115)
(0.00295671 -0.222673 0.000804389)
(0.00052758 -0.223647 0.00014565)
(0.00292085 -0.222911 0.000811646)
(0.000509691 -0.224067 0.000144126)
(0.000780089 -0.23153 1.07446e-05)
(0.000780056 -0.23153 -1.07428e-05)
(0.000717268 -0.232027 9.33554e-06)
(0.000717266 -0.232027 -9.33347e-06)
(0.000284183 -0.224038 1.0223e-05)
(0.000284189 -0.224038 -1.01303e-05)
(0.000261863 -0.224527 8.59837e-06)
(0.000261887 -0.224527 -8.88852e-06)
(0.000982289 -0.231073 -0.000119282)
(0.000664716 -0.23074 -0.00022909)
(0.000926605 -0.231486 -0.000117074)
(0.00059887 -0.231076 -0.00023367)
(0.000528023 -0.223647 -0.000146121)
(0.00296123 -0.222674 -0.000805461)
(0.000510086 -0.224067 -0.000144038)
(0.0029235 -0.222912 -0.000812202)
(-0.0127058 -0.231275 0.000289295)
(0.0110614 -0.231668 0.969369)
(-0.0128117 -0.231764 0.00027145)
(0.0110135 -0.232409 0.973542)
(-0.00263736 -0.222315 0.00124239)
(0.00394471 -0.22262 0.996305)
(-0.00272366 -0.222644 0.00122564)
(0.00398178 -0.223431 0.996326)
(0.0111236 -0.230195 -0.97314)
(-0.0124455 -0.230207 -0.000317351)
(0.0110801 -0.230971 -0.970854)
(-0.0125735 -0.230784 -0.000304712)
(0.00390586 -0.220971 -0.996228)
(-0.00252059 -0.221419 -0.00126516)
(0.0038948 -0.221789 -0.992428)
(-0.00255986 -0.221903 -0.00125672)
(0.000808781 -0.229891 0.000218545)
(0.00111159 -0.230118 0.000121006)
(0.000734335 -0.230348 0.000223986)
(0.00104379 -0.230619 0.0001206)
(0.00302912 -0.221993 0.000790791)
(0.000571879 -0.22269 0.000147612)
(0.00299323 -0.222368 0.000798484)
(0.00054814 -0.223189 0.000147688)
(0.00091697 -0.230426 1.26307e-05)
(0.000916913 -0.230426 -1.28267e-05)
(0.000846531 -0.230998 1.18049e-05)
(0.000846497 -0.230997 -1.19262e-05)
(0.000332913 -0.222952 1.21205e-05)
(0.000332887 -0.222952 -1.23202e-05)
(0.000307785 -0.223514 1.09959e-05)
(0.000307802 -0.223514 -1.12798e-05)
(0.00111167 -0.230118 -0.000121117)
(0.000808246 -0.22989 -0.000218025)
(0.00104376 -0.230619 -0.000120571)
(0.000733592 -0.230349 -0.000223183)
(0.000571954 -0.22269 -0.000147878)
(0.00303112 -0.221991 -0.000791077)
(0.000548598 -0.223189 -0.000147598)
(0.00299671 -0.222367 -0.000798365)
(-0.0124764 -0.230222 0.000317228)
(0.011152 -0.230193 0.968977)
(-0.0125982 -0.230775 0.000304232)
(0.0111041 -0.230964 0.968968)
(-0.00249821 -0.221418 0.00126727)
(0.00389013 -0.22099 0.996225)
(-0.00254448 -0.221904 0.00125552)
(0.00388883 -0.221771 0.996242)
(0.0112621 -0.228646 -0.97276)
(-0.0122262 -0.22892 -0.000337446)
(0.0111949 -0.229463 -0.97283)
(-0.0123469 -0.229594 -0.000327982)
(0.00389794 -0.219323 -0.996148)
(-0.00240669 -0.220273 -0.00128269)
(0.00389656 -0.220178 -0.996165)
(-0.00245732 -0.220881 -0.0012746)
(0.000967853 -0.228804 0.000207669)
(0.00126276 -0.228971 0.000120427)
(0.000885477 -0.229379 0.000213015)
(0.00118434 -0.22957 0.000120944)
(0.0030995 -0.221049 0.000777397)
(0.000625521 -0.221554 0.000147138)
(0.0030656 -0.221554 0.000784531)
(0.000597699 -0.222146 0.000147937)
(0.00107129 -0.229156 1.37468e-05)
(0.00107126 -0.229156 -1.41026e-05)
(0.00099174 -0.229813 1.32723e-05)
(0.000991695 -0.229813 -1.3529e-05)
(0.000387808 -0.221704 1.31134e-05)
(0.000387805 -0.221704 -1.36402e-05)
(0.000359508 -0.222349 1.26064e-05)
(0.00035948 -0.222349 -1.27691e-05)
(0.00126255 -0.228971 -0.000120949)
(0.000964539 -0.228801 -0.000208836)
(0.0011842 -0.22957 -0.000121317)
(0.000883746 -0.229379 -0.000213688)
(0.000625471 -0.221554 -0.000147554)
(0.00309854 -0.221048 -0.000777836)
(0.000597495 -0.222146 -0.000148553)
(0.00306543 -0.221553 -0.000784971)
(-0.0122448 -0.228923 0.000338538)
(0.0112855 -0.228642 0.970563)
(-0.0123581 -0.229607 0.000328665)
(0.0112054 -0.229456 0.968593)
(-0.00243198 -0.220282 0.00128623)
(0.00392202 -0.219345 0.996143)
(-0.00246916 -0.22088 0.00127808)
(0.0039034 -0.220155 0.99616)
(0.0114217 -0.226965 -0.963949)
(-0.0119864 -0.227441 -0.000354834)
(0.011319 -0.227846 -0.968229)
(-0.0120951 -0.228214 -0.00034661)
(0.00392309 -0.217627 -0.996068)
(-0.00232347 -0.218914 -0.00129762)
(0.00389954 -0.218492 -0.996081)
(-0.00236624 -0.219622 -0.00129037)
(0.00114491 -0.227475 0.00019879)
(0.00143546 -0.227613 0.000118989)
(0.00105499 -0.228173 0.000202933)
(0.00134654 -0.22832 0.000119833)
(0.00316996 -0.219849 0.000764045)
(0.000687756 -0.220218 0.000145196)
(0.00313291 -0.220482 0.00077035)
(0.000655421 -0.220913 0.000146332)
(0.00124525 -0.227699 1.45229e-05)
(0.00124528 -0.227699 -1.46026e-05)
(0.00115574 -0.228452 1.41906e-05)
(0.00115573 -0.228452 -1.44479e-05)
(0.00044964 -0.220273 1.36457e-05)
(0.000449666 -0.220273 -1.38374e-05)
(0.000417813 -0.221013 1.35291e-05)
(0.00041782 -0.221013 -1.37299e-05)
(0.00143561 -0.227614 -0.000119158)
(0.00114375 -0.227477 -0.000199713)
(0.00134634 -0.22832 -0.000120312)
(0.00105077 -0.228171 -0.000204421)
(0.000688108 -0.220218 -0.000145981)
(0.00317576 -0.219851 -0.000765383)
(0.000655579 -0.220913 -0.000147141)
(0.00313649 -0.220484 -0.000771807)
(-0.0120005 -0.227427 0.00035553)
(0.0114409 -0.226961 0.968463)
(-0.0121305 -0.228209 0.000347596)
(0.0113573 -0.227853 0.970211)
(-0.00230593 -0.218923 0.0013006)
(0.00391106 -0.217627 0.996066)
(-0.00236946 -0.219636 0.00129414)
(0.00390892 -0.218462 0.996077)
(0.0116114 -0.225119 -0.967706)
(-0.0117249 -0.225739 -0.000367244)
(0.0115195 -0.226095 -0.967738)
(-0.0118693 -0.22662 -0.00036096)
(0.00394619 -0.215765 -0.995989)
(-0.00221655 -0.217323 -0.00130793)
(0.00393024 -0.216696 -0.996002)
(-0.00226213 -0.218147 -0.0013028)
(0.0013466 -0.225906 0.000190506)
(0.00163114 -0.226027 0.000116077)
(0.00124138 -0.226724 0.000194686)
(0.00153037 -0.22685 0.00011762)
(0.00324923 -0.21839 0.00075227)
(0.000758956 -0.218662 0.000142288)
(0.00321084 -0.219153 0.000757898)
(0.000722569 -0.219469 0.000143318)
(0.00144056 -0.226033 1.45776e-05)
(0.00144045 -0.226033 -1.46374e-05)
(0.00134024 -0.226893 1.46046e-05)
(0.00134033 -0.226894 -1.46869e-05)
(0.00051909 -0.21864 1.39015e-05)
(0.000519044 -0.21864 -1.29711e-05)
(0.000483466 -0.219483 1.36731e-05)
(0.00048355 -0.219484 -1.46868e-05)
(0.00163072 -0.226028 -0.000116116)
(0.00134555 -0.225907 -0.00019013)
(0.00153067 -0.226851 -0.000117434)
(0.00123992 -0.226727 -0.000194335)
(0.000758912 -0.218662 -0.000143977)
(0.0032514 -0.218391 -0.000754095)
(0.000723058 -0.21947 -0.000143097)
(0.00321256 -0.219153 -0.000757657)
(-0.0117544 -0.225729 0.000367276)
(0.0116428 -0.22512 0.968162)
(-0.0118824 -0.226617 0.000361235)
(0.0115323 -0.226104 0.968069)
(-0.00220067 -0.217329 0.00131004)
(0.00393368 -0.215774 0.99599)
(-0.00225489 -0.218152 0.00130404)
(0.00391907 -0.216693 0.996002)
(0.0118108 -0.223093 -0.965257)
(-0.0114222 -0.223815 -0.000378435)
(0.0116976 -0.224169 -0.965273)
(-0.0115758 -0.224826 -0.000372911)
(0.00400045 -0.213748 -0.995912)
(-0.0021358 -0.215514 -0.0013164)
(0.00396918 -0.214784 -0.995921)
(-0.00218068 -0.216449 -0.00131148)
(0.00157011 -0.224082 0.000183432)
(0.001849 -0.224196 0.000113029)
(0.00145462 -0.22503 0.000186594)
(0.00173752 -0.225144 0.000114344)
(0.00332825 -0.216666 0.000741236)
(0.000837941 -0.216867 0.000139626)
(0.00328679 -0.217562 0.000745032)
(0.000797708 -0.217796 0.000139323)
(0.00165834 -0.224138 1.43241e-05)
(0.0016582 -0.224138 -1.44965e-05)
(0.00154685 -0.225116 1.43743e-05)
(0.00154686 -0.225116 -1.47862e-05)
(0.000596492 -0.216783 1.31435e-05)
(0.000596439 -0.216783 -1.23812e-05)
(0.000556978 -0.217741 1.36504e-05)
(0.00055707 -0.217741 -1.53959e-05)
(0.00184895 -0.224197 -0.000113203)
(0.00156791 -0.224083 -0.000183239)
(0.0017381 -0.225145 -0.000114305)
(0.00145229 -0.22503 -0.000186086)
(0.000838095 -0.216867 -0.000141163)
(0.00333248 -0.216664 -0.000743544)
(0.000798725 -0.217796 -0.000138202)
(0.00329197 -0.217562 -0.000744099)
(-0.0114635 -0.223827 0.000378151)
(0.0118515 -0.223088 0.971632)
(-0.011619 -0.224813 0.00037335)
(0.0117417 -0.224167 0.967759)
(-0.00208286 -0.215506 0.00131969)
(0.00395474 -0.213771 0.992254)
(-0.00212889 -0.216451 0.0013114)
(0.00392644 -0.214768 0.995922)
(0.0120579 -0.220846 -0.971223)
(-0.011111 -0.221674 -0.000386334)
(0.0119411 -0.222027 -0.966853)
(-0.011284 -0.222772 -0.00038274)
(0.0040269 -0.211543 -0.995839)
(-0.00198626 -0.213442 -0.00132096)
(0.00399536 -0.212693 -0.995846)
(-0.0020435 -0.21452 -0.00131666)
(0.00181315 -0.221991 0.00017701)
(0.00209136 -0.222102 0.000109532)
(0.00168679 -0.223073 0.000179746)
(0.00196806 -0.223184 0.000110936)
(0.00342074 -0.214666 0.000731258)
(0.000926352 -0.214817 0.000136123)
(0.00337356 -0.215702 0.00073262)
(0.000882022 -0.215876 0.000134142)
(0.00189987 -0.221993 1.38662e-05)
(0.00189978 -0.221993 -1.38689e-05)
(0.0017765 -0.223098 1.41354e-05)
(0.00177648 -0.223098 -1.42776e-05)
(0.000682423 -0.214682 1.22026e-05)
(0.000682407 -0.214682 -1.18745e-05)
(0.000638738 -0.215764 1.40825e-05)
(0.000638785 -0.215764 -1.48463e-05)
(0.0020913 -0.222102 -0.000109513)
(0.00181105 -0.221991 -0.000177765)
(0.00196844 -0.223184 -0.000110821)
(0.00168461 -0.223073 -0.00018003)
(0.000926524 -0.214817 -0.000136536)
(0.00342258 -0.214667 -0.000731681)
(0.000882476 -0.215876 -0.000133738)
(0.0033739 -0.215702 -0.00073277)
(-0.0111345 -0.221665 0.000387953)
(0.0120807 -0.22084 0.963016)
(-0.0113044 -0.222791 0.000382926)
(0.0119569 -0.222019 0.966926)
(-0.00198053 -0.213442 0.00132284)
(0.00402177 -0.211567 0.995838)
(-0.00203719 -0.21451 0.00131908)
(0.00398341 -0.212674 0.992113)
(0.0123227 -0.218345 -0.968008)
(-0.0107525 -0.219222 -0.000393135)
(0.0121575 -0.219658 -0.968072)
(-0.0109183 -0.220502 -0.000390306)
(0.00410982 -0.209154 -0.992223)
(-0.00188917 -0.211109 -0.00132616)
(0.00407302 -0.210398 -0.995771)
(-0.00195398 -0.212314 -0.00132069)
(0.00207914 -0.219617 0.000170358)
(0.00235842 -0.219727 0.000105369)
(0.00194244 -0.220845 0.000173444)
(0.00222272 -0.220952 0.000107088)
(0.00351705 -0.21238 0.000720573)
(0.00102416 -0.212492 0.000131191)
(0.00346683 -0.213561 0.000722008)
(0.000975141 -0.21369 0.000129894)
(0.00216698 -0.219577 1.3109e-05)
(0.00216678 -0.219577 -1.33029e-05)
(0.00203059 -0.22082 1.35304e-05)
(0.00203052 -0.22082 -1.36747e-05)
(0.000777494 -0.212317 1.19294e-05)
(0.000777396 -0.212317 -1.13298e-05)
(0.000729164 -0.213533 1.36166e-05)
(0.000729154 -0.213533 -1.39705e-05)
(0.00235816 -0.219727 -0.000105772)
(0.0020769 -0.219618 -0.000170985)
(0.00222293 -0.220952 -0.000107243)
(0.00193841 -0.220845 -0.000174104)
(0.00102388 -0.212492 -0.000132072)
(0.00351869 -0.212383 -0.000721076)
(0.000975286 -0.21369 -0.000129615)
(0.00346876 -0.213563 -0.000721518)
(-0.0107734 -0.219226 0.000393448)
(0.0123447 -0.21834 0.968722)
(-0.0109605 -0.220488 0.000390946)
(0.0122004 -0.219665 0.964847)
(-0.00185296 -0.211116 0.00132622)
(0.00407237 -0.209156 0.992187)
(-0.00192021 -0.212316 0.00132064)
(0.00404228 -0.210363 0.995772)
(0.0126373 -0.215579 -0.970397)
(-0.0103731 -0.216524 -0.000398335)
(0.0124788 -0.217029 -0.97046)
(-0.0105753 -0.217916 -0.000395344)
(0.00416425 -0.206476 -0.992317)
(-0.00173532 -0.208491 -0.00132675)
(0.00411943 -0.207845 -0.992085)
(-0.00179573 -0.209843 -0.0013251)
(0.00236924 -0.216948 0.000164564)
(0.00265082 -0.217053 0.000101378)
(0.00221998 -0.218323 0.000167079)
(0.00250183 -0.218429 0.000103232)
(0.00362503 -0.2098 0.000709504)
(0.00113129 -0.209876 0.000125133)
(0.00357049 -0.21113 0.000713831)
(0.00107692 -0.211221 0.000127016)
(0.00246041 -0.21687 1.2312e-05)
(0.00246028 -0.21687 -1.26851e-05)
(0.00231056 -0.218261 1.2689e-05)
(0.00231044 -0.218261 -1.30707e-05)
(0.000881919 -0.209668 1.14259e-05)
(0.000881916 -0.209668 -1.23146e-05)
(0.000828662 -0.211029 1.20175e-05)
(0.000828655 -0.211028 -1.285e-05)
(0.00265041 -0.217053 -0.000101556)
(0.00236716 -0.21695 -0.000165212)
(0.00250161 -0.218429 -0.000103474)
(0.00221854 -0.218323 -0.000167584)
(0.00113159 -0.209876 -0.000124636)
(0.00362729 -0.209799 -0.000708158)
(0.00107713 -0.21122 -0.000126776)
(0.00357306 -0.211132 -0.000713176)
(-0.0103806 -0.216522 0.000398772)
(0.0126522 -0.215577 0.970401)
(-0.0105831 -0.217925 0.000395881)
(0.0124882 -0.217032 0.970467)
(-0.00171676 -0.208487 0.00132425)
(0.00415436 -0.206486 0.995691)
(-0.00176633 -0.209843 0.00132542)
(0.00409201 -0.207824 0.992047)
(0.0129757 -0.21252 -0.969969)
(-0.00994927 -0.213506 -0.000403209)
(0.0128002 -0.214114 -0.970037)
(-0.0101669 -0.21506 -0.000400977)
(0.00426894 -0.203529 -0.995617)
(-0.00158581 -0.205556 -0.00132752)
(0.00420523 -0.205043 -0.992184)
(-0.00165984 -0.207068 -0.00132855)
(0.00268258 -0.213967 0.000160465)
(0.00296762 -0.214063 9.77082e-05)
(0.00252295 -0.215499 0.000162546)
(0.00280607 -0.215599 9.95668e-05)
(0.00374826 -0.206907 0.000700299)
(0.00124765 -0.206951 0.000121295)
(0.00368497 -0.208394 0.000705156)
(0.00118833 -0.208453 0.000123344)
(0.00277995 -0.213852 1.15386e-05)
(0.00277992 -0.213852 -1.18774e-05)
(0.00261686 -0.215401 1.20141e-05)
(0.00261661 -0.215401 -1.21654e-05)
(0.000995496 -0.206718 1.0115e-05)
(0.000995539 -0.206718 -1.19843e-05)
(0.000937502 -0.208232 1.1514e-05)
(0.000937378 -0.208232 -1.03105e-05)
(0.00296757 -0.214063 -9.77487e-05)
(0.00267966 -0.213968 -0.000160914)
(0.00280495 -0.215599 -9.98903e-05)
(0.00252038 -0.215499 -0.000163314)
(0.0012481 -0.20695 -0.000119514)
(0.00374991 -0.206906 -0.000697824)
(0.00118788 -0.208452 -0.000124693)
(0.00368621 -0.208394 -0.00070562)
(-0.00995216 -0.213507 0.000403352)
(0.0129783 -0.212517 0.969975)
(-0.0101759 -0.215052 0.000401362)
(0.0128139 -0.214119 0.970043)
(-0.00155137 -0.205556 0.00132439)
(0.00423665 -0.203535 0.995619)
(-0.00164051 -0.207066 0.00132623)
(0.00418871 -0.205025 0.995625)
(0.013329 -0.209149 -0.967824)
(-0.00957877 -0.210175 -0.000406703)
(0.0131481 -0.210901 -0.967891)
(-0.00975573 -0.211889 -0.000405082)
(0.00439175 -0.200274 -0.995541)
(-0.00138644 -0.202307 -0.00132812)
(0.00432154 -0.201944 -0.995545)
(-0.0014872 -0.203972 -0.00132657)
(0.00301024 -0.210657 0.00015649)
(0.00330982 -0.210741 9.39816e-05)
(0.00284371 -0.212357 0.000158201)
(0.00313608 -0.212445 9.57356e-05)
(0.00388995 -0.203686 0.000690953)
(0.00137374 -0.203703 0.000116724)
(0.00381711 -0.205338 0.000693748)
(0.00131008 -0.205368 0.000117425)
(0.00312574 -0.210506 1.07849e-05)
(0.00312578 -0.210506 -1.0985e-05)
(0.00294969 -0.212221 1.12928e-05)
(0.00294949 -0.212221 -1.1327e-05)
(0.00111839 -0.203449 9.25534e-06)
(0.00111844 -0.203449 -1.05445e-05)
(0.00105587 -0.205124 1.12454e-05)
(0.00105574 -0.205124 -9.55706e-06)
(0.00331005 -0.210741 -9.39295e-05)
(0.00300911 -0.210659 -0.000156494)
(0.00313505 -0.212445 -9.60601e-05)
(0.00284247 -0.212358 -0.000158845)
(0.00137405 -0.203702 -0.00011555)
(0.00389003 -0.203685 -0.000689129)
(0.00130944 -0.205368 -0.000119326)
(0.00381952 -0.205337 -0.000695212)
(-0.00957813 -0.210174 0.000406348)
(0.0133285 -0.209133 0.969531)
(-0.00975743 -0.211892 0.000404856)
(0.0131474 -0.210913 0.969596)
(-0.00136639 -0.202302 0.00132492)
(0.00437343 -0.200276 0.995543)
(-0.00146056 -0.203967 0.00132581)
(0.00429779 -0.201938 0.995549)
(0.0137069 -0.205442 -0.966491)
(-0.00924126 -0.206505 -0.000410235)
(0.0135127 -0.207355 -0.966561)
(-0.00941682 -0.20839 -0.000408631)
(0.00454938 -0.196694 -0.995464)
(-0.00117762 -0.198762 -0.00132747)
(0.00445773 -0.198528 -0.995469)
(-0.00127321 -0.200573 -0.00132741)
(0.00335812 -0.207001 0.00015249)
(0.00367765 -0.207071 8.99901e-05)
(0.00318012 -0.208874 0.000154449)
(0.00349088 -0.20895 9.19133e-05)
(0.00404307 -0.20013 0.000681926)
(0.00150927 -0.200116 0.000111214)
(0.00396623 -0.201952 0.000685468)
(0.00144076 -0.201952 0.000113153)
(0.00349761 -0.206817 1.00113e-05)
(0.00349757 -0.206816 -1.00652e-05)
(0.00330857 -0.208705 1.04496e-05)
(0.00330853 -0.208705 -1.04572e-05)
(0.00125059 -0.199846 8.96509e-06)
(0.00125055 -0.199846 -9.18584e-06)
(0.00118342 -0.20169 9.78533e-06)
(0.00118337 -0.20169 -9.42921e-06)
(0.00367745 -0.20707 -9.00588e-05)
(0.00335716 -0.207 -0.000152608)
(0.00349058 -0.20895 -9.19266e-05)
(0.00317969 -0.208874 -0.000154434)
(0.00150902 -0.200116 -0.000111279)
(0.00404169 -0.200128 -0.000681385)
(0.00144041 -0.201952 -0.000113683)
(0.00396525 -0.201949 -0.000685422)
(-0.00924293 -0.206505 0.000410757)
(0.0137057 -0.20543 0.965411)
(-0.00941783 -0.208394 0.00040885)
(0.0135072 -0.207366 0.965481)
(-0.00115745 -0.198758 0.00132647)
(0.00453036 -0.196695 0.995466)
(-0.0012563 -0.200569 0.00132626)
(0.00443665 -0.19853 0.995471)
(0.0141027 -0.201375 -0.968594)