/*--------------------------------*- C++ -*----------------------------------*\
  =========                 |
  \\      /  F ield         | OpenFOAM: The Open Source CFD Toolbox
   \\    /   O peration     | Website:  https://openfoam.org
    \\  /    A nd           | Version:  9
     \\/     M anipulation  |
\*---------------------------------------------------------------------------*/
FoamFile
{
    format      ascii;
    class       volScalarField;
    location    "4.9";
    object      nut;
}
// * * * * * * * * * * * * * * * * * * * * * * * * * * * * * * * * * * * * * //

dimensions      [0 2 -1 0 0 0 0];

internalField   nonuniform List<scalar> 
36360
(
0.00822292
0.00797961
0.00697202
0.00680903
0.000954608
0.000911665
0.000727202
0.000756797
0.00744471
0.00729851
0.00624902
0.00611824
0.000798081
0.000722003
0.000624399
0.000541168
0.00731825
0.00731696
0.00617374
0.00617266
0.000687237
0.000687078
0.000506802
0.000506642
0.00729399
0.00743616
0.00611388
0.00623994
0.000721525
0.000797328
0.000540659
0.000623551
0.0079672
0.00820644
0.00679542
0.00695354
0.000910729
0.000953491
0.00075573
0.000725928
0.00994981
0.00980154
0.00914219
0.00894625
0.00115821
0.00110431
0.00107209
0.00101846
0.00935172
0.00917981
0.00845441
0.0082912
0.00100662
0.000943677
0.000913654
0.000844907
0.00914474
0.0091434
0.00827762
0.00827627
0.000914137
0.000914008
0.000812843
0.000812699
0.00917558
0.0093443
0.00828678
0.00844645
0.000943298
0.00100603
0.000844482
0.000912992
0.00979098
0.00993589
0.00893486
0.00912717
0.00110357
0.00115734
0.00101763
0.00107112
0.0113446
0.0112479
0.0106801
0.010562
0.00129272
0.00124048
0.00123015
0.00117704
0.0108525
0.0106755
0.010143
0.00996663
0.00115307
0.00109796
0.00108507
0.00102654
0.0106172
0.0106159
0.00991724
0.00991595
0.00107198
0.00107187
0.000998982
0.000998865
0.0106717
0.010846
0.00996261
0.0101361
0.00109765
0.00115258
0.0010262
0.00108453
0.0112386
0.0113323
0.0105522
0.010667
0.00123986
0.00129199
0.00117636
0.00122936
0.0124783
0.0124124
0.0119391
0.0118586
0.0013963
0.00134594
0.00134758
0.00129627
0.0120483
0.0118733
0.0114809
0.0113043
0.0012651
0.0012149
0.00121249
0.00116009
0.0118055
0.0118044
0.01124
0.0112388
0.0011912
0.00119111
0.00113536
0.00113526
0.0118699
0.0120425
0.0113007
0.0114748
0.00121463
0.00126468
0.00115981
0.00121204
0.012404
0.0124671
0.0118499
0.0119273
0.00134539
0.00139567
0.00129569
0.0013469
0.0133984
0.013355
0.0129603
0.0129063
0.00147831
0.00142974
0.00143956
0.0013901
0.0130108
0.0128398
0.0125529
0.0123796
0.00135341
0.00130653
0.00131172
0.00126332
0.0127687
0.0127677
0.0123094
0.0123084
0.00128444
0.00128436
0.00124049
0.00124041
0.0128367
0.0130055
0.0123763
0.0125473
0.0013063
0.00135304
0.00126307
0.00131133
0.0133474
0.0133881
0.0128983
0.0129495
0.00142925
0.00147774
0.0013896
0.00143896
0.0141475
0.0141213
0.0137901
0.0137557
0.00154411
0.00149712
0.00151292
0.00146516
0.0137914
0.0136248
0.013419
0.0132501
0.0014241
0.00137963
0.00139061
0.00134502
0.0135533
0.0135523
0.0131784
0.0131774
0.00135872
0.00135865
0.00132357
0.00132349
0.0136219
0.0137865
0.0132471
0.0134139
0.00137942
0.00142376
0.0013448
0.00139026
0.0141142
0.0141378
0.0137483
0.0137801
0.00149668
0.00154359
0.0014647
0.00151238
0.0147599
0.0147474
0.0144672
0.014448
0.00159737
0.00155173
0.00157207
0.00152578
0.0144284
0.0142657
0.0141238
0.013959
0.00148123
0.0014386
0.0014541
0.00141062
0.014195
0.0141941
0.0138877
0.0138868
0.00141857
0.0014185
0.00139017
0.0013901
0.014263
0.0144238
0.0139562
0.014119
0.00143841
0.00148092
0.00141042
0.00145378
0.0147408
0.0147509
0.0144412
0.0144578
0.00155133
0.0015969
0.00152536
0.00157158
0.0152625
0.0152607
0.0150218
0.0150148
0.00164074
0.00159622
0.00162011
0.00157505
0.0149506
0.0147913
0.0147003
0.0145392
0.00152769
0.00148649
0.0015056
0.00146373
0.0147212
0.0147203
0.0144688
0.0144679
0.00146717
0.00146711
0.00144407
0.00144401
0.0147887
0.0149463
0.0145366
0.0146959
0.00148631
0.00152741
0.00146354
0.0015053
0.0152544
0.0152538
0.0150084
0.015013
0.00159584
0.00164029
0.00157466
0.00161965
0.0156753
0.0156821
0.0154773
0.0154799
0.00167611
0.00163252
0.00165928
0.00161524
0.0153794
0.015223
0.0151736
0.0150157
0.00156558
0.0015255
0.00154755
0.00150694
0.0151535
0.0151527
0.0149458
0.014945
0.00150676
0.0015067
0.00148793
0.00148787
0.0152206
0.0153753
0.0150132
0.0151694
0.00152533
0.00156531
0.00150677
0.00154728
0.0156761
0.0156669
0.0154738
0.0154688
0.00163217
0.00167569
0.00161488
0.00165885
0.016014
0.016028
0.0158514
0.0158619
0.00170496
0.00166214
0.00169123
0.00164804
0.0157314
0.0155776
0.0155622
0.015407
0.00159648
0.0015573
0.00158178
0.00154217
0.0155087
0.0155079
0.0153378
0.015337
0.00153903
0.00153898
0.00152368
0.00152362
0.0155752
0.0157275
0.0154047
0.0155582
0.00155715
0.00159623
0.00154201
0.00158152
0.0160222
0.0160059
0.015856
0.0158431
0.00166181
0.00170456
0.0016477
0.00169082
0.0162908
0.0163107
0.0161578
0.0161748
0.00172839
0.00168621
0.00171725
0.00167476
0.0160192
0.0158675
0.0158807
0.0157279
0.00162159
0.00158315
0.00160965
0.00157086
0.0157993
0.0157986
0.0156593
0.0156586
0.00156526
0.00156521
0.00155279
0.00155274
0.0158653
0.0160154
0.0157256
0.0158768
0.001583
0.00162135
0.00157071
0.00160941
0.0163051
0.0162829
0.0161691
0.0161498
0.00168589
0.00172801
0.00167444
0.00171686
0.0165154
0.0165401
0.0164075
0.0164297
0.00174728
0.00170562
0.00173831
0.0016964
0.0162529
0.0161031
0.0161404
0.0159896
0.00164186
0.00160402
0.00163224
0.00159412
0.0160355
0.0160348
0.0159216
0.0159209
0.00158644
0.00158639
0.00157638
0.00157633
0.0161009
0.0162492
0.0159874
0.0161366
0.00160388
0.00164163
0.00159397
0.001632
0.0165346
0.0165077
0.0164242
0.0163997
0.00170531
0.0017469
0.00169609
0.00173793
0.0166953
0.0167239
0.0166089
0.0166355
0.00176228
0.00172106
0.00175518
0.00171375
0.0164403
0.0162922
0.0163501
0.0162011
0.00165801
0.00162067
0.00165037
0.00161279
0.0162252
0.0162245
0.0161337
0.016133
0.00160334
0.0016033
0.00159534
0.00159529
0.0162901
0.0164367
0.0161989
0.0163464
0.00162053
0.00165779
0.00161265
0.00165014
0.0167185
0.0166877
0.01663
0.0166012
0.00172076
0.00176192
0.00171345
0.00175482
0.0168366
0.0168684
0.0167688
0.0167989
0.00177397
0.0017331
0.00176847
0.00172743
0.0165879
0.0164413
0.0165169
0.0163694
0.00167064
0.00163371
0.0016647
0.00162757
0.0163748
0.0163741
0.0163026
0.0163019
0.00161659
0.00161654
0.00161035
0.0016103
0.0164392
0.0165843
0.0163673
0.0165133
0.00163357
0.00167042
0.00162743
0.00166448
0.0168631
0.0168291
0.0167936
0.0167613
0.00173281
0.00177361
0.00172713
0.00176811
0.0169441
0.0169786
0.0168927
0.0169257
0.00178274
0.00174216
0.00177865
0.00173793
0.0167006
0.0165551
0.0166465
0.0165003
0.00168019
0.00164361
0.00167574
0.00163899
0.0164893
0.0164887
0.0164341
0.0164335
0.00162665
0.00162661
0.00162196
0.00162191
0.016553
0.016697
0.0164982
0.0166429
0.00164348
0.00167998
0.00163885
0.00167552
0.0169734
0.0169367
0.0169205
0.0168852
0.00174187
0.00178239
0.00173764
0.0017783
0.0170216
0.0170583
0.0169848
0.0170202
0.00178895
0.00174859
0.00178611
0.00174564
0.0167824
0.016638
0.0167432
0.0165982
0.00168704
0.00165075
0.0016839
0.00164747
0.016573
0.0165723
0.0165328
0.0165321
0.00163393
0.00163388
0.00163058
0.00163054
0.016636
0.0167789
0.0165962
0.0167397
0.00165062
0.00168683
0.00164733
0.00168369
0.0170532
0.0170144
0.0170151
0.0169774
0.00174831
0.00178861
0.00174535
0.00178576
0.0170723
0.0171108
0.0170485
0.017086
0.00179285
0.00175267
0.00179114
0.00175087
0.0168366
0.0166931
0.0168109
0.0166669
0.00169148
0.00165542
0.00168951
0.00165334
0.0166289
0.0166282
0.0166022
0.0166015
0.00163871
0.00163866
0.00163657
0.00163653
0.0166911
0.0168331
0.0166649
0.0168074
0.0016553
0.00169127
0.00165321
0.0016893
0.0171057
0.0170651
0.0170809
0.0170412
0.0017524
0.00179252
0.00175059
0.0017908
0.0170986
0.0171386
0.0170867
0.0171259
0.00179466
0.00175461
0.00179397
0.00175386
0.0168657
0.0167231
0.0168522
0.0167092
0.00169372
0.00165787
0.00169283
0.00165688
0.0166598
0.0166592
0.0166453
0.0166447
0.00164124
0.00164119
0.0016402
0.00164016
0.0167211
0.0168622
0.0167071
0.0168488
0.00165775
0.00169352
0.00165675
0.00169262
0.0171335
0.0170913
0.0171208
0.0170794
0.00175434
0.00179433
0.00175359
0.00179364
0.0171022
0.0171436
0.0171013
0.017142
0.00179452
0.00175456
0.00179476
0.00175476
0.0168716
0.0167296
0.0168696
0.0167273
0.00169394
0.00165825
0.00169404
0.00165828
0.0166668
0.0166661
0.0166643
0.0166636
0.00164169
0.00164165
0.00164168
0.00164164
0.0167276
0.0168681
0.0167252
0.0168661
0.00165813
0.00169375
0.00165816
0.00169384
0.0171385
0.0170949
0.0171368
0.017094
0.0017543
0.0017942
0.0017545
0.00179444
0.0170844
0.0171273
0.0170942
0.0171363
0.00179262
0.00175273
0.00179376
0.00175385
0.016856
0.0167143
0.0168646
0.0167227
0.00169235
0.0016568
0.00169337
0.00165776
0.0166518
0.0166511
0.01666
0.0166594
0.0016403
0.00164026
0.00164123
0.00164119
0.0167123
0.0168526
0.0167207
0.0168612
0.00165667
0.00169215
0.00165763
0.00169317
0.0171223
0.0170774
0.0171312
0.0170871
0.00175245
0.00179228
0.00175358
0.00179344
0.0170467
0.0170908
0.0170663
0.0171096
0.00178899
0.00174913
0.00179097
0.00175109
0.0168195
0.0166783
0.0168384
0.0166968
0.00168896
0.00165351
0.00169083
0.00165533
0.0166161
0.0166154
0.0166344
0.0166337
0.00163707
0.00163703
0.00163887
0.00163882
0.0166764
0.0168161
0.0166949
0.016835
0.00165339
0.00168876
0.00165521
0.00169063
0.0170858
0.0170395
0.0171046
0.0170592
0.00174888
0.00178867
0.00175083
0.00179064
0.0169898
0.0170354
0.0170189
0.0170636
0.00178382
0.00174396
0.00178656
0.00174671
0.0167635
0.0166227
0.016792
0.0166509
0.00168391
0.00164853
0.0016866
0.00165119
0.0165607
0.01656
0.0165887
0.0165881
0.00163212
0.00163208
0.00163477
0.00163473
0.0166208
0.0167601
0.016649
0.0167886
0.00164841
0.00168371
0.00165107
0.0016864
0.0170305
0.0169828
0.0170587
0.0170119
0.00174368
0.00178348
0.00174644
0.00178624
0.0169142
0.0169613
0.0169526
0.0169988
0.00177703
0.00173714
0.00178059
0.00174071
0.0166886
0.0165481
0.0167264
0.0165858
0.00167723
0.0016419
0.00168074
0.00164538
0.0164862
0.0164855
0.0165237
0.0165231
0.00162552
0.00162547
0.00162899
0.00162895
0.0165462
0.0166853
0.0165838
0.0167231
0.00164177
0.00167703
0.00164526
0.00168053
0.0169565
0.0169073
0.0169939
0.0169457
0.00173688
0.00177671
0.00174044
0.00178025
0.0168202
0.016869
0.0168678
0.0169156
0.00176866
0.00172871
0.00177301
0.00173309
0.0165952
0.0164547
0.0166423
0.0165017
0.00166893
0.00163363
0.00167324
0.00163793
0.0163929
0.0163922
0.0164398
0.0164391
0.00161727
0.00161723
0.00162156
0.00162152
0.0164528
0.0165919
0.0164998
0.016639
0.00163351
0.00166873
0.00163781
0.00167305
0.0168641
0.0168133
0.0169107
0.0168609
0.00172845
0.00176834
0.00173282
0.00177268
0.016708
0.0167586
0.0167647
0.0168142
0.00175871
0.00171869
0.00176384
0.00172386
0.0164834
0.0163428
0.0165397
0.016399
0.00165903
0.00162376
0.00166415
0.00162886
0.016281
0.0162803
0.0163372
0.0163365
0.0016074
0.00160736
0.0016125
0.00161246
0.0163409
0.0164801
0.0163971
0.0165364
0.00162363
0.00165884
0.00162874
0.00166395
0.0167538
0.0167011
0.0168094
0.0167578
0.00171843
0.00175839
0.0017236
0.00176352
0.0165775
0.0166303
0.0166433
0.0166949
0.00174721
0.00170708
0.00175312
0.00171304
0.0163533
0.0162124
0.0164187
0.0162779
0.00164755
0.00161227
0.00165346
0.00161818
0.0161506
0.0161499
0.016216
0.0162154
0.0015959
0.00159586
0.00160182
0.00160178
0.0162105
0.01635
0.016276
0.0164154
0.00161215
0.00164736
0.00161806
0.00165326
0.0166255
0.0165707
0.0166901
0.0166365
0.00170682
0.0017469
0.00171278
0.0017528
0.0164289
0.0164839
0.0165038
0.0165575
0.00173416
0.0016939
0.00174084
0.00170065
0.0162048
0.0160635
0.0162794
0.0161382
0.00163447
0.00159916
0.00164118
0.00160589
0.0160016
0.0160009
0.0160763
0.0160757
0.00158278
0.00158274
0.00158952
0.00158948
0.0160616
0.0162015
0.0161364
0.0162762
0.00159904
0.00163428
0.00160577
0.00164099
0.0164792
0.0164221
0.0165527
0.016497
0.00169364
0.00173384
0.00170039
0.00174053
0.0162619
0.0163194
0.016346
0.0164021
0.00171953
0.00167911
0.001727
0.00168667
0.0160378
0.0158959
0.0161217
0.01598
0.00161978
0.00158442
0.0016273
0.00159197
0.0158338
0.0158332
0.015918
0.0159174
0.00156801
0.00156797
0.00157557
0.00157553
0.015894
0.0160345
0.0159782
0.0161185
0.0015843
0.00161959
0.00159185
0.00162711
0.0163146
0.0162551
0.0163974
0.0163392
0.00167885
0.00171921
0.00168641
0.00172669
0.0160762
0.0161363
0.0161697
0.0162283
0.00170332
0.00166271
0.00171159
0.00167108
0.0158519
0.0157093
0.0159453
0.015803
0.00160345
0.001568
0.00161179
0.00157639
0.015647
0.0156464
0.0157407
0.0157401
0.00155155
0.00155151
0.00155996
0.00155992
0.0157074
0.0158487
0.0158011
0.0159421
0.00156789
0.00160325
0.00157627
0.0016116
0.0161315
0.0160695
0.0162236
0.016163
0.00166245
0.001703
0.00167082
0.00171127
0.0158715
0.015934
0.0159746
0.0160358
0.00168549
0.00164464
0.00169457
0.00165385
0.0156465
0.0155031
0.0157497
0.0156066
0.00158543
0.00154987
0.00159462
0.00155912
0.0154405
0.0154399
0.0155442
0.0155435
0.00153335
0.00153331
0.00154264
0.0015426
0.0155012
0.0156433
0.0156048
0.0157465
0.00154975
0.00158523
0.001559
0.00159443
0.0159293
0.0158648
0.016031
0.0159679
0.00164438
0.00168517
0.00165359
0.00169426
0.0156471
0.0157121
0.0157601
0.0158237
0.001666
0.00162489
0.00167592
0.00163494
0.0154212
0.0152767
0.0155345
0.0153904
0.00156567
0.00152996
0.00157574
0.00154011
0.0152139
0.0152133
0.0153277
0.0153271
0.00151336
0.00151332
0.00152355
0.00152351
0.0152748
0.015418
0.0153886
0.0155313
0.00152984
0.00156547
0.00153999
0.00157554
0.0157074
0.0156404
0.015819
0.0157534
0.00162463
0.00166569
0.00163468
0.00167561
0.0154023
0.0154697
0.0155256
0.0155918
0.00164483
0.00160341
0.0016556
0.00161433
0.0151749
0.0150292
0.0152989
0.0151536
0.00154411
0.00150819
0.00155509
0.00151928
0.0149662
0.0149655
0.0150907
0.01509
0.00149148
0.00149144
0.00150263
0.00150259
0.0150274
0.0151718
0.0151518
0.0152957
0.00150807
0.00154391
0.00151916
0.00155489
0.015465
0.0153957
0.0155871
0.015519
0.00160315
0.00164452
0.00161408
0.00165529
0.0151358
0.0152052
0.0152702
0.0153385
0.00162189
0.00158012
0.00163355
0.00159196
0.0149065
0.0147594
0.0150417
0.0148952
0.00152065
0.00148447
0.0015326
0.00149655
0.0146961
0.0146955
0.0148319
0.0148313
0.00146763
0.00146759
0.00147978
0.00147974
0.0147576
0.0149033
0.0148933
0.0150385
0.00148435
0.00152046
0.00149643
0.0015324
0.0152005
0.0151293
0.0153338
0.0152636
0.00157986
0.00162158
0.0015917
0.00163324
0.0148461
0.0149169
0.0149923
0.0150624
0.0015971
0.00155492
0.0016097
0.00156773
0.0146141
0.0144656
0.0147615
0.0146136
0.0014952
0.00145867
0.00150816
0.00147181
0.0144021
0.0144014
0.0145501
0.0145495
0.00144166
0.00144162
0.00145489
0.00145485
0.0144638
0.014611
0.0146118
0.0147584
0.00145855
0.001495
0.00147169
0.00150796
0.0149123
0.0148396
0.0150577
0.0149858
0.00155467
0.00159679
0.00156747
0.00160939
0.0145308
0.0146029
0.0146902
0.0147615
0.00157038
0.00152776
0.00158396
0.00154156
0.0142959
0.0141456
0.0144565
0.0143071
0.0014676
0.00143062
0.00148165
0.00144491
0.0140817
0.0140811
0.0142433
0.0142427
0.00141338
0.00141334
0.0014278
0.00142775
0.0141438
0.0142927
0.0143052
0.0144534
0.00143049
0.00146741
0.00144479
0.00148145
0.0145983
0.0145244
0.0147569
0.0146837
0.0015275
0.00157007
0.0015413
0.00158365
0.0141874
0.0142603
0.0143612
0.0144336
0.00154168
0.00149857
0.00155624
0.00151338
0.0139487
0.0137959
0.0141243
0.0139728
0.0014377
0.00140006
0.00145292
0.00141564
0.0137314
0.0137307
0.0139085
0.0139079
0.0013825
0.00138246
0.00139827
0.00139822
0.0137941
0.0139456
0.0139709
0.0141212
0.00139993
0.0014375
0.00141552
0.00145273
0.0142557
0.014181
0.014429
0.0143548
0.0014983
0.00154136
0.00151312
0.00155593
0.0138144
0.0138864
0.0140029
0.0140758
0.00151124
0.00146748
0.0015266
0.00148321
0.0135679
0.0134108
0.0137612
0.0136063
0.00140519
0.00136651
0.00142177
0.00138367
0.0133451
0.0133445
0.0135411
0.0135405
0.00134848
0.00134843
0.0013659
0.00136586
0.0134089
0.0135648
0.0136045
0.013758
0.00136638
0.00140499
0.00138355
0.00142157
0.0138819
0.0138081
0.0140712
0.0139966
0.00146722
0.00151093
0.00148295
0.00152628
0.0134251
0.0134767
0.0136175
0.013685
0.00148089
0.00143461
0.00149576
0.00145127
0.0131426
0.0129807
0.0133602
0.0132001
0.00136912
0.00132895
0.0013877
0.0013483
0.0129154
0.0129148
0.013134
0.0131334
0.00131039
0.00131034
0.00132998
0.00132994
0.0129789
0.0131396
0.0131983
0.0133571
0.00132883
0.00136892
0.00134817
0.0013875
0.0134723
0.0134191
0.0136805
0.0136113
0.00143435
0.00148058
0.00145101
0.00149544
0.0131202
0.012989
0.0132497
0.0132494
0.00145582
0.00139225
0.00146771
0.00141623
0.0126476
0.0125013
0.0129035
0.012744
0.00132566
0.00128568
0.00134872
0.00130809
0.0124454
0.0124448
0.0126817
0.0126812
0.0012673
0.00126726
0.00128945
0.00128941
0.0124996
0.0126447
0.0127423
0.0129005
0.00128556
0.00132546
0.00130797
0.00134852
0.0129849
0.0131144
0.0132451
0.0132437
0.001392
0.00145551
0.00141598
0.0014674
0.0174317
0.0170215
0.0150582
0.0147467
0.013363
0.0129889
0.0113586
0.0110804
0.0164281
0.0163058
0.0141028
0.0139605
0.0124115
0.0122982
0.0104504
0.0103181
0.0163791
0.0163742
0.014037
0.0140324
0.0123766
0.0123735
0.0104051
0.0104022
0.0162906
0.0164023
0.0139459
0.0140772
0.0122881
0.0123937
0.0103084
0.0104324
0.0169867
0.0173887
0.0147116
0.0150141
0.0129641
0.0133315
0.0110549
0.0113257
0.0218013
0.0214408
0.0196618
0.0192683
0.016683
0.0163805
0.0150891
0.0147443
0.0209424
0.0208447
0.0187218
0.0186125
0.0159105
0.0158152
0.0142217
0.0141185
0.0208982
0.0208932
0.0186755
0.0186705
0.0158615
0.0158583
0.0141797
0.0141765
0.0208296
0.0209175
0.0185972
0.0186964
0.0158053
0.0158938
0.0141084
0.0142044
0.0214076
0.0217607
0.0192343
0.01962
0.0163575
0.0166541
0.0147205
0.015059
0.0257246
0.0254172
0.0238218
0.0234901
0.0195128
0.0192736
0.0181529
0.0178848
0.0249881
0.0249019
0.0230296
0.022938
0.0188772
0.0187885
0.0174554
0.0173635
0.0249381
0.0249332
0.0229815
0.0229765
0.0188116
0.0188085
0.0173963
0.0173931
0.0248874
0.0249645
0.0229231
0.0230053
0.0187792
0.0188616
0.0173538
0.0174393
0.0253857
0.0256858
0.0234578
0.0237821
0.0192524
0.0194858
0.0178627
0.018125
0.0291143
0.0288457
0.0274827
0.0271957
0.0218909
0.0216929
0.020752
0.0205354
0.0284628
0.028382
0.0267911
0.0267072
0.0213429
0.0212572
0.020164
0.0200763
0.0284062
0.0284016
0.0267363
0.0267316
0.0212663
0.0212634
0.0200911
0.0200881
0.0283682
0.0284404
0.0266931
0.0267681
0.0212485
0.0213284
0.0200673
0.020149
0.0288158
0.0290772
0.027165
0.0274447
0.021673
0.0218654
0.0205148
0.0207257
0.0319862
0.0317474
0.0306073
0.0303543
0.0238667
0.0236979
0.0229217
0.0227391
0.0313977
0.0313208
0.0299887
0.0299092
0.0233801
0.0232972
0.0224061
0.0223212
0.0313375
0.0313331
0.0299289
0.0299244
0.0232984
0.0232957
0.0223255
0.0223227
0.0313077
0.0313765
0.0298958
0.0299669
0.0232891
0.0233666
0.0223128
0.0223921
0.0317188
0.0319506
0.0303251
0.0305709
0.0236791
0.0238425
0.0227198
0.0228969
0.0343999
0.0341846
0.0332417
0.033015
0.0255026
0.0253562
0.0247197
0.0245625
0.0338605
0.0337873
0.0326785
0.0326028
0.0250624
0.0249826
0.0242572
0.0241754
0.0337994
0.0337952
0.0326166
0.0326123
0.0249793
0.0249767
0.0241737
0.0241711
0.0337748
0.0338402
0.0325901
0.0326577
0.0249749
0.0250496
0.0241674
0.024244
0.0341572
0.0343655
0.032987
0.0332066
0.0253384
0.0254794
0.0245442
0.024696
0.0364232
0.0362261
0.0354521
0.0352463
0.0268572
0.0267288
0.0262082
0.0260711
0.0359222
0.0358525
0.0349324
0.0348605
0.0264537
0.0263768
0.0257869
0.0257082
0.0358619
0.0358579
0.0348708
0.0348667
0.026371
0.0263686
0.0257032
0.0257007
0.0358405
0.0359026
0.0348483
0.0349125
0.0263695
0.0264415
0.0257007
0.0257744
0.0361996
0.0363898
0.0352193
0.0354181
0.0267117
0.0268349
0.0260537
0.0261855
0.0381165
0.0379339
0.0373035
0.0371138
0.0279805
0.027867
0.0274417
0.0273209
0.0376463
0.0375801
0.0368181
0.0367497
0.0276064
0.0275321
0.0270532
0.0269773
0.0375879
0.037584
0.0367579
0.036754
0.0275247
0.0275224
0.0269704
0.026968
0.0375686
0.0376274
0.0367379
0.0367988
0.0275251
0.0275946
0.0269701
0.0270412
0.0379082
0.038084
0.0370877
0.0372705
0.0278506
0.0279589
0.0273042
0.0274198
0.0395304
0.0393596
0.0388514
0.0386747
0.0289113
0.02881
0.0284645
0.0283572
0.0390856
0.0390226
0.0383939
0.0383288
0.028561
0.0284892
0.0281024
0.028029
0.0390295
0.0390258
0.0383359
0.0383321
0.0284808
0.0284786
0.0280209
0.0280186
0.0390114
0.0390673
0.0383175
0.0383752
0.0284824
0.0285497
0.0280221
0.0280909
0.0393345
0.0394986
0.0386493
0.0388191
0.0287941
0.0288903
0.028341
0.0284431
0.0407082
0.0405471
0.0401423
0.0399764
0.0296813
0.0295901
0.0293113
0.0292152
0.0402845
0.0402245
0.039708
0.0396461
0.0293507
0.0292812
0.0289709
0.0289
0.040231
0.0402274
0.0396525
0.0396488
0.0292723
0.0292701
0.0288911
0.0288889
0.0402136
0.0402665
0.039635
0.0396898
0.0292746
0.0293397
0.0288933
0.0289598
0.0405226
0.0406769
0.0399516
0.0401107
0.0295745
0.0296607
0.0291994
0.0292905
0.0416846
0.0415316
0.0412154
0.0410584
0.0303155
0.0302326
0.0300106
0.0299236
0.0412786
0.0412214
0.0408004
0.0407415
0.0300013
0.0299339
0.0296882
0.0296195
0.0412279
0.0412243
0.0407478
0.0407441
0.0299248
0.0299227
0.0296103
0.0296081
0.0412107
0.041261
0.0407307
0.0407827
0.0299275
0.0299906
0.029613
0.0296773
0.0415075
0.0416537
0.0410341
0.0411843
0.0302174
0.0302953
0.0299082
0.0299902
0.0424888
0.0423427
0.0421025
0.041953
0.0308344
0.0307584
0.0305849
0.0305055
0.0420978
0.0420433
0.0417038
0.0416476
0.0305341
0.0304686
0.0302776
0.0302109
0.0420499
0.0420464
0.0416539
0.0416504
0.0304595
0.0304575
0.0302016
0.0301995
0.0420328
0.0420805
0.041637
0.0416864
0.0304623
0.0305235
0.0302045
0.0302669
0.042319
0.0424584
0.041929
0.0420718
0.0307435
0.0308145
0.0304904
0.0305649
0.0431442
0.0430039
0.0428297
0.0426864
0.0312542
0.031184
0.0310525
0.0309794
0.042766
0.0427138
0.0424448
0.0423911
0.0309655
0.0309019
0.0307578
0.030693
0.0427208
0.0427173
0.0423977
0.0423942
0.030893
0.0308909
0.0306838
0.0306818
0.0427035
0.0427489
0.0423807
0.0424276
0.0308957
0.0309551
0.0306868
0.0307473
0.0429804
0.0431141
0.0426627
0.0427993
0.0311693
0.0312346
0.0309645
0.0310327
0.0436704
0.043535
0.0434183
0.0432803
0.0315882
0.0315227
0.0314279
0.03136
0.0433029
0.043253
0.0430451
0.0429938
0.0313093
0.0312474
0.0311439
0.0310809
0.0432603
0.0432569
0.0430007
0.0429972
0.0312388
0.0312368
0.0310719
0.0310699
0.0432428
0.043286
0.0429835
0.0430281
0.0312413
0.031299
0.0310747
0.0311335
0.0435117
0.0436404
0.0432569
0.0433881
0.0315082
0.0315688
0.0313454
0.0314083
0.0440828
0.0439516
0.0438859
0.0437524
0.031847
0.0317854
0.0317231
0.0316595
0.0437247
0.0436768
0.0435227
0.0434735
0.0315764
0.0315161
0.0314481
0.0313868
0.0436846
0.0436812
0.0434808
0.0434774
0.0315079
0.0315059
0.0313782
0.0313762
0.0436667
0.0437079
0.0434633
0.0435059
0.0315101
0.0315662
0.0313808
0.0314379
0.0439285
0.0440531
0.0437292
0.0438559
0.031771
0.0318277
0.0316451
0.0317038
0.0443945
0.0442669
0.0442464
0.0441169
0.0320393
0.031981
0.0319477
0.0318877
0.0440443
0.0439984
0.0438919
0.0438447
0.0317757
0.031717
0.0316803
0.0316206
0.0440067
0.0440033
0.0438525
0.0438492
0.0317092
0.0317072
0.0316125
0.0316105
0.0439883
0.0440277
0.0438346
0.0438753
0.031711
0.0317656
0.0316146
0.0316702
0.0442439
0.0443649
0.0440939
0.0442167
0.0319667
0.0320201
0.0318733
0.0319284
0.044616
0.0444914
0.0445118
0.0443856
0.032172
0.0321164
0.0321094
0.0320523
0.0442726
0.0442284
0.0441647
0.0441193
0.0319143
0.031857
0.0318485
0.0317903
0.0442373
0.0442339
0.0441277
0.0441243
0.0318498
0.0318479
0.0317826
0.0317807
0.0442184
0.0442561
0.0441093
0.0441482
0.0318511
0.0319043
0.0317843
0.0318385
0.0444685
0.0445865
0.0443627
0.0444822
0.0321022
0.0321529
0.0320381
0.0320902
0.0447548
0.0446328
0.0446912
0.0445679
0.0322504
0.0321972
0.0322145
0.0321599
0.0444177
0.0443754
0.0443507
0.044307
0.0319981
0.0319422
0.0319591
0.0319022
0.0443849
0.0443816
0.0443159
0.0443126
0.0319355
0.0319336
0.0318951
0.0318932
0.0443654
0.0444012
0.044297
0.0443342
0.0319362
0.0319881
0.0318963
0.0319491
0.04461
0.0447253
0.044545
0.0446616
0.032183
0.0322313
0.0321457
0.0321953
0.0448198
0.0447
0.0447922
0.0446711
0.0322798
0.0322284
0.0322676
0.032215
0.0444876
0.0444463
0.0444568
0.0444147
0.0320313
0.0319762
0.0320168
0.0319613
0.0444561
0.0444528
0.0444242
0.0444209
0.0319699
0.031968
0.0319549
0.031953
0.0444363
0.0444712
0.0444047
0.0444403
0.0319703
0.0320213
0.0319554
0.0320068
0.0446773
0.0447904
0.0446483
0.0447627
0.0322142
0.0322607
0.0322008
0.0322484
0.0448141
0.0446962
0.0448213
0.0447023
0.032262
0.0322123
0.0322732
0.0322225
0.0444863
0.0444464
0.0444909
0.0444501
0.0320175
0.0319635
0.0320265
0.0319718
0.0444569
0.0444536
0.0444601
0.0444568
0.0319578
0.0319559
0.0319658
0.0319638
0.0444366
0.04447
0.0444402
0.0444746
0.0319577
0.0320077
0.031966
0.0320166
0.0446737
0.044785
0.0446797
0.0447919
0.0321984
0.0322433
0.0322085
0.0322543
0.0447427
0.0446264
0.0447823
0.0446651
0.0322008
0.0321524
0.0322334
0.0321842
0.0444186
0.0443799
0.044456
0.0444164
0.0319591
0.0319062
0.03199
0.0319363
0.0443909
0.0443876
0.0444269
0.0444236
0.0319009
0.031899
0.0319306
0.0319287
0.0443701
0.0444024
0.0444065
0.0444397
0.0319004
0.0319493
0.0319305
0.0319802
0.044604
0.0447137
0.0446426
0.0447531
0.0321384
0.0321819
0.0321702
0.0322146
0.0446082
0.0444935
0.044679
0.0445634
0.0320976
0.0320504
0.032151
0.0321031
0.0442875
0.0442501
0.0443562
0.0443178
0.0318583
0.0318065
0.0319102
0.0318576
0.0442616
0.0442584
0.0443289
0.0443257
0.0318017
0.0317998
0.0318524
0.0318505
0.0442403
0.0442715
0.0443081
0.0443401
0.0318008
0.0318486
0.0318518
0.0319005
0.0444713
0.0445795
0.044541
0.04465
0.0320367
0.0320791
0.0320892
0.0321323
0.0444135
0.0443
0.0445142
0.0443999
0.0319543
0.0319081
0.0320275
0.0319807
0.0440956
0.0440592
0.0441945
0.0441572
0.0317169
0.031666
0.0317889
0.0317373
0.0440714
0.0440681
0.0441689
0.0441657
0.0316618
0.0316599
0.0317327
0.0317308
0.0440496
0.0440797
0.0441476
0.0441785
0.0316603
0.0317074
0.0317316
0.0317793
0.044278
0.0443849
0.0443778
0.0444854
0.0318945
0.0319359
0.0319671
0.0320091
0.04416
0.0440477
0.04429
0.0441769
0.0317719
0.0317266
0.0318647
0.0318188
0.0438444
0.0438089
0.0439728
0.0439366
0.031536
0.0314858
0.0316277
0.0315769
0.0438216
0.0438184
0.0439488
0.0439455
0.0314819
0.03148
0.0315727
0.0315708
0.0437993
0.0438286
0.0439269
0.0439569
0.0314801
0.0315264
0.0315712
0.0316181
0.0440258
0.0441316
0.0441549
0.0442614
0.031713
0.0317536
0.0318052
0.0318463
0.0438486
0.0437372
0.0440075
0.0438955
0.0315508
0.0315062
0.0316629
0.0316178
0.0435347
0.0434999
0.0436923
0.0436569
0.0313158
0.0312662
0.0314271
0.0313769
0.043513
0.0435098
0.0436695
0.0436663
0.0312627
0.0312608
0.0313731
0.0313712
0.0434904
0.0435189
0.0436473
0.0436765
0.0312605
0.0313063
0.0313713
0.0314176
0.0437154
0.0438204
0.0438736
0.0439791
0.0314927
0.0315325
0.0316042
0.0316446
0.0434792
0.0433686
0.0436672
0.043556
0.0312909
0.0312469
0.0314224
0.031378
0.0431665
0.0431322
0.0433534
0.0433186
0.0310565
0.0310073
0.0311874
0.0311377
0.0431456
0.0431425
0.0433316
0.0433284
0.0310041
0.0310022
0.0311342
0.0311324
0.0431227
0.0431508
0.0433091
0.0433377
0.0310017
0.0310471
0.0311321
0.031178
0.043347
0.0434512
0.0435343
0.0436389
0.0312335
0.0312728
0.0313645
0.0314042
0.0430514
0.0429413
0.0432687
0.0431582
0.0309922
0.0309486
0.0311432
0.0310993
0.0427392
0.0427052
0.0429558
0.0429214
0.0307578
0.0307088
0.0309085
0.0308591
0.0427189
0.0427158
0.0429347
0.0429316
0.0307058
0.030704
0.0308559
0.030854
0.0426958
0.0427237
0.0429119
0.0429402
0.0307032
0.0307485
0.0308535
0.0308991
0.0429199
0.0430236
0.0431366
0.0432407
0.0309353
0.0309742
0.031086
0.0311252
0.0425639
0.0424543
0.0428112
0.0427012
0.030654
0.0306107
0.0308249
0.0307813
0.0422517
0.0422177
0.0424986
0.0424643
0.030419
0.03037
0.0305899
0.0305406
0.0422316
0.0422285
0.042478
0.0424748
0.0303673
0.0303655
0.0305376
0.0305358
0.0422084
0.0422362
0.042455
0.0424831
0.0303645
0.0304097
0.0305351
0.0305805
0.042433
0.0425364
0.0426798
0.0427834
0.0305975
0.0306362
0.030768
0.0308069
0.042015
0.0419055
0.0422934
0.0421836
0.0302752
0.0302319
0.0304666
0.0304232
0.0417019
0.0416678
0.0419803
0.041946
0.0300391
0.0299899
0.0302307
0.0301814
0.0416818
0.0416787
0.0419597
0.0419566
0.0299873
0.0299855
0.0301786
0.0301767
0.0416585
0.0416865
0.0419366
0.0419649
0.0299844
0.0300298
0.0301759
0.0302214
0.0418843
0.0419877
0.0421624
0.0422658
0.0302188
0.0302576
0.03041
0.0304488
0.0414019
0.0412922
0.0417128
0.041603
0.0298545
0.0298108
0.0300671
0.0300235
0.0410871
0.0410525
0.0413984
0.0413638
0.0296163
0.0295668
0.0298296
0.02978
0.0410666
0.0410636
0.0413777
0.0413746
0.0295644
0.0295625
0.0297774
0.0297755
0.0410433
0.0410719
0.0413545
0.0413832
0.0295614
0.0296071
0.0297745
0.0298204
0.0412712
0.0413749
0.041582
0.0416855
0.0297978
0.029837
0.0300104
0.0300494
0.0407213
0.0406109
0.0410665
0.0409562
0.0293898
0.0293454
0.0296246
0.0295805
0.0404037
0.0403684
0.0407499
0.0407147
0.0291487
0.0290987
0.0293847
0.0293348
0.0403826
0.0403795
0.0407286
0.0407255
0.0290963
0.0290945
0.0293322
0.0293304
0.0403593
0.0403886
0.0407055
0.0407347
0.0290933
0.0291396
0.0293293
0.0293756
0.0405901
0.0406946
0.0409353
0.0410395
0.0293325
0.0293725
0.0295675
0.0296072
0.0399685
0.0398569
0.0403505
0.0402394
0.0288787
0.0288332
0.0291372
0.0290922
0.0396469
0.0396107
0.0400305
0.0399945
0.0286336
0.0285827
0.0288939
0.0288431
0.039625
0.0396219
0.0400085
0.0400054
0.0285803
0.0285785
0.0288406
0.0288388
0.0396016
0.0396319
0.0399854
0.0400155
0.0285773
0.0286245
0.0288377
0.0288847
0.0398364
0.0399421
0.0402187
0.0403239
0.0288204
0.0288615
0.0290793
0.0291199
0.0391374
0.0390239
0.0395595
0.0394469
0.0283173
0.0282702
0.0286015
0.0285552
0.0388103
0.0387731
0.0392348
0.0391977
0.028067
0.0280151
0.0283536
0.0283019
0.0387877
0.0387847
0.039212
0.039209
0.0280126
0.0280108
0.0282993
0.0282975
0.0387641
0.0387955
0.0391887
0.0392199
0.0280097
0.028058
0.0282965
0.0283445
0.0390036
0.0391113
0.0394264
0.0395332
0.0282575
0.0283003