/*--------------------------------*- C++ -*----------------------------------*\
  =========                 |
  \\      /  F ield         | OpenFOAM: The Open Source CFD Toolbox
   \\    /   O peration     | Website:  https://openfoam.org
    \\  /    A nd           | Version:  9
     \\/     M anipulation  |
\*---------------------------------------------------------------------------*/
FoamFile
{
    format      ascii;
    class       volScalarField;
    location    "4.9";
    object      p;
}
// * * * * * * * * * * * * * * * * * * * * * * * * * * * * * * * * * * * * * //

dimensions      [0 2 -2 0 0 0 0];

internalField   nonuniform List<scalar> 
36360
(
20.1372
20.0714
20.1325
20.075
20.0833
20.116
20.0881
20.1074
20.0981
20.1002
20.0989
20.101
20.0993
20.0986
20.0978
20.0981
20.1001
20.1001
20.101
20.101
20.0985
20.0985
20.0982
20.0982
20.1002
20.0981
20.101
20.0989
20.0986
20.0993
20.0981
20.0978
20.0715
20.1371
20.075
20.1324
20.116
20.0834
20.1074
20.0881
20.108
20.0954
20.1198
20.0862
20.0507
20.1464
20.0664
20.133
20.1017
20.099
20.0998
20.0995
20.1039
20.0981
20.1014
20.0984
20.0984
20.0984
20.0993
20.0993
20.0973
20.0973
20.098
20.098
20.099
20.1017
20.0995
20.0997
20.0981
20.1038
20.0984
20.1014
20.0954
20.108
20.0863
20.1198
20.1463
20.0508
20.133
20.0665
20.0892
20.1075
20.0981
20.1022
20.0235
20.1675
20.0364
20.1579
20.1077
20.0993
20.1045
20.099
20.1107
20.0985
20.107
20.0982
20.0971
20.0971
20.0977
20.0977
20.0963
20.0964
20.0968
20.0968
20.0993
20.1076
20.099
20.1045
20.0986
20.1105
20.0982
20.1071
20.1075
20.0892
20.1022
20.0982
20.1674
20.0235
20.1578
20.0365
20.074
20.1145
20.0812
20.1115
20.0014
20.1816
20.0118
20.1752
20.1139
20.1007
20.1108
20.0999
20.1177
20.1
20.1141
20.0992
20.0964
20.0964
20.0966
20.0966
20.0959
20.0959
20.0961
20.096
20.1007
20.1139
20.0999
20.1108
20.1
20.1177
20.0992
20.1143
20.1145
20.0741
20.1115
20.0812
20.1816
20.0016
20.1753
20.012
20.062
20.1182
20.0677
20.1167
19.984
20.191
19.9922
20.1868
20.1195
20.1028
20.1168
20.1017
20.124
20.102
20.121
20.101
20.0963
20.0963
20.0963
20.0963
20.096
20.096
20.0959
20.0959
20.1028
20.1195
20.1017
20.1168
20.102
20.124
20.101
20.1209
20.1182
20.0621
20.1167
20.0677
20.1909
19.9841
20.1867
19.9923
20.0525
20.12
20.057
20.1193
19.97
20.1971
19.9766
20.1943
20.1241
20.105
20.1219
20.1039
20.1292
20.1042
20.1268
20.1031
20.0968
20.0968
20.0965
20.0965
20.0966
20.0966
20.0962
20.0962
20.105
20.1241
20.1039
20.1219
20.1042
20.1292
20.1031
20.1267
20.1199
20.0525
20.1193
20.057
20.197
19.9701
20.1943
19.9767
20.0447
20.1205
20.0484
20.1203
19.9587
20.2011
19.9641
20.1993
20.1277
20.1071
20.126
20.1061
20.1333
20.1063
20.1314
20.1053
20.0976
20.0976
20.0971
20.0971
20.0975
20.0974
20.097
20.097
20.1071
20.1277
20.1061
20.126
20.1063
20.1333
20.1053
20.1314
20.1205
20.0448
20.1203
20.0484
20.2011
19.9589
20.1993
19.9642
20.0384
20.1203
20.0414
20.1205
19.9496
20.2037
19.9539
20.2026
20.1305
20.109
20.1292
20.1081
20.1365
20.1082
20.135
20.1073
20.0986
20.0986
20.0981
20.0981
20.0985
20.0985
20.098
20.098
20.109
20.1305
20.1081
20.1292
20.1082
20.1365
20.1073
20.135
20.1203
20.0385
20.1205
20.0415
20.2037
19.9497
20.2025
19.954
20.0332
20.1197
20.0357
20.1201
19.9421
20.2054
19.9457
20.2046
20.1326
20.1107
20.1316
20.1099
20.1389
20.1099
20.1378
20.1091
20.0997
20.0997
20.0992
20.0992
20.0996
20.0996
20.0991
20.099
20.1106
20.1326
20.1099
20.1316
20.1099
20.1389
20.1091
20.1378
20.1197
20.0332
20.1201
20.0357
20.2053
19.9422
20.2046
19.9458
20.0288
20.1189
20.0309
20.1193
19.9359
20.2064
19.9388
20.2059
20.1342
20.112
20.1335
20.1113
20.1407
20.1112
20.1399
20.1106
20.1008
20.1008
20.1003
20.1003
20.1006
20.1006
20.1001
20.1001
20.112
20.1341
20.1113
20.1334
20.1112
20.1407
20.1106
20.1399
20.1189
20.0289
20.1193
20.031
20.2063
19.936
20.2059
19.9389
20.0252
20.118
20.0269
20.1185
19.9307
20.2069
19.9332
20.2067
20.1353
20.113
20.1348
20.1125
20.142
20.1123
20.1414
20.1118
20.1017
20.1017
20.1012
20.1012
20.1015
20.1015
20.1011
20.1011
20.113
20.1352
20.1125
20.1347
20.1123
20.142
20.1118
20.1414
20.118
20.0252
20.1185
20.027
20.2069
19.9308
20.2066
19.9333
20.022
20.117
20.0235
20.1175
19.9264
20.207
19.9285
20.207
20.136
20.1138
20.1357
20.1135
20.1429
20.1131
20.1425
20.1128
20.1024
20.1024
20.1021
20.1021
20.1023
20.1023
20.1019
20.1019
20.1138
20.136
20.1135
20.1356
20.1131
20.1429
20.1127
20.1425
20.117
20.0221
20.1175
20.0236
20.207
19.9265
20.207
19.9286
20.0193
20.116
20.0206
20.1165
19.9228
20.2069
19.9245
20.207
20.1364
20.1144
20.1362
20.1141
20.1434
20.1137
20.1432
20.1134
20.1029
20.1029
20.1027
20.1027
20.1028
20.1028
20.1026
20.1026
20.1144
20.1364
20.1141
20.1362
20.1136
20.1434
20.1134
20.1432
20.116
20.0193
20.1165
20.0206
20.2069
19.9229
20.207
19.9246
20.017
20.1149
20.0181
20.1155
19.9197
20.2066
19.9212
20.2068
20.1365
20.1147
20.1365
20.1145
20.1436
20.114
20.1435
20.1138
20.1033
20.1033
20.1031
20.1031
20.1031
20.1031
20.103
20.103
20.1146
20.1365
20.1145
20.1365
20.1139
20.1436
20.1138
20.1435
20.1149
20.017
20.1155
20.0181
20.2065
19.9198
20.2067
19.9213
20.0149
20.1139
20.0159
20.1144
19.9171
20.206
19.9184
20.2063
20.1364
20.1147
20.1365
20.1147
20.1436
20.114
20.1436
20.114
20.1034
20.1034
20.1034
20.1034
20.1032
20.1032
20.1032
20.1032
20.1147
20.1364
20.1147
20.1365
20.114
20.1435
20.114
20.1436
20.1139
20.0149
20.1144
20.0159
20.206
19.9172
20.2063
19.9185
20.0131
20.1129
20.0139
20.1134
19.915
20.2053
19.916
20.2057
20.1361
20.1145
20.1363
20.1146
20.1433
20.1138
20.1434
20.1139
20.1033
20.1033
20.1034
20.1034
20.1031
20.1031
20.1032
20.1032
20.1145
20.1361
20.1146
20.1363
20.1138
20.1432
20.1139
20.1434
20.1129
20.0131
20.1134
20.014
20.2053
19.915
20.2056
19.9161
20.0115
20.1118
20.0122
20.1124
19.9131
20.2044
19.914
20.2048
20.1357
20.1142
20.1359
20.1144
20.1427
20.1135
20.143
20.1137
20.1031
20.1031
20.1032
20.1032
20.1028
20.1028
20.103
20.103
20.1142
20.1357
20.1144
20.1359
20.1135
20.1427
20.1137
20.143
20.1118
20.0115
20.1124
20.0123
20.2044
19.9132
20.2048
19.9141
20.01
20.1108
20.0107
20.1113
19.9116
20.2033
19.9123
20.2039
20.1351
20.1137
20.1354
20.114
20.142
20.1129
20.1424
20.1132
20.1027
20.1027
20.1029
20.1029
20.1023
20.1023
20.1026
20.1026
20.1137
20.1351
20.1139
20.1354
20.1129
20.142
20.1132
20.1424
20.1108
20.0101
20.1113
20.0108
20.2033
19.9116
20.2038
19.9124
20.0088
20.1098
20.0094
20.1103
19.9103
20.2021
19.9109
20.2027
20.1344
20.113
20.1348
20.1134
20.1411
20.1121
20.1416
20.1125
20.1021
20.1021
20.1024
20.1024
20.1016
20.1016
20.102
20.102
20.113
20.1344
20.1134
20.1348
20.1121
20.1411
20.1125
20.1416
20.1098
20.0088
20.1103
20.0094
20.2021
19.9104
20.2027
19.911
20.0076
20.1088
20.0082
20.1093
19.9093
20.2008
19.9098
20.2015
20.1336
20.1122
20.134
20.1126
20.1401
20.1112
20.1406
20.1117
20.1014
20.1014
20.1018
20.1018
20.1008
20.1008
20.1012
20.1012
20.1122
20.1336
20.1126
20.134
20.1112
20.1401
20.1117
20.1406
20.1088
20.0077
20.1093
20.0082
20.2008
19.9093
20.2014
19.9098
20.0067
20.1078
20.0071
20.1083
19.9085
20.1994
19.9089
20.2001
20.1325
20.1113
20.1331
20.1118
20.1388
20.1102
20.1395
20.1107
20.1006
20.1006
20.101
20.101
20.0998
20.0998
20.1003
20.1003
20.1113
20.1325
20.1118
20.1331
20.1101
20.1388
20.1107
20.1395
20.1078
20.0067
20.1083
20.0072
20.1994
19.9085
20.2001
19.9089
20.0059
20.1069
20.0063
20.1073
19.9079
20.1979
19.9082
20.1987
20.1312
20.1103
20.1318
20.1108
20.1374
20.109
20.1381
20.1096
20.0998
20.0998
20.1002
20.1002
20.0988
20.0988
20.0993
20.0993
20.1103
20.1312
20.1108
20.1318
20.109
20.1374
20.1096
20.1381
20.1069
20.0059
20.1074
20.0063
20.1979
19.9079
20.1986
19.9082
20.0053
20.106
20.0055
20.1064
19.9075
20.1963
19.9077
20.1971
20.1299
20.1093
20.1305
20.1098
20.1359
20.1077
20.1367
20.1084
20.0989
20.0989
20.0993
20.0993
20.0976
20.0976
20.0982
20.0982
20.1093
20.1299
20.1098
20.1305
20.1077
20.1359
20.1084
20.1366
20.106
20.0053
20.1065
20.0056
20.1963
19.9076
20.1971
19.9077
20.0048
20.1052
20.005
20.1056
19.9074
20.1947
19.9074
20.1955
20.1286
20.1083
20.1292
20.1088
20.1343
20.1064
20.1351
20.1071
20.098
20.098
20.0984
20.0984
20.0964
20.0964
20.097
20.097
20.1083
20.1285
20.1088
20.1292
20.1064
20.1343
20.1071
20.1351
20.1052
20.0049
20.1056
20.0051
20.1947
19.9075
20.1955
19.9075
20.0046
20.1045
20.0047
20.1048
19.9076
20.193
19.9075
20.1939
20.1273
20.1073
20.1279
20.1078
20.1326
20.1051
20.1335
20.1057
20.0971
20.0971
20.0975
20.0975
20.0952
20.0952
20.0958
20.0958
20.1072
20.1273
20.1078
20.1279
20.105
20.1326
20.1057
20.1335
20.1045
20.0046
20.1048
20.0047
20.193
19.9077
20.1939
19.9076
20.0046
20.1038
20.0046
20.1041
19.9081
20.1913
19.9078
20.1922
20.126
20.1063
20.1267
20.1068
20.131
20.1037
20.1318
20.1044
20.0963
20.0963
20.0967
20.0967
20.094
20.094
20.0946
20.0946
20.1063
20.126
20.1068
20.1266
20.1037
20.131
20.1044
20.1318
20.1038
20.0047
20.1041
20.0046
20.1913
19.9082
20.1922
19.9079
20.0049
20.1033
20.0047
20.1036
19.9089
20.1896
19.9085
20.1905
20.1249
20.1054
20.1255
20.1058
20.1293
20.1024
20.1301
20.1031
20.0956
20.0956
20.0959
20.0959
20.0929
20.0929
20.0935
20.0935
20.1054
20.1249
20.1058
20.1254
20.1024
20.1293
20.1031
20.1301
20.1033
20.0049
20.1036
20.0048
20.1896
19.909
20.1904
19.9085
20.0055
20.103
20.0052
20.1031
19.9101
20.1879
19.9095
20.1887
20.1238
20.1047
20.1243
20.105
20.1277
20.1013
20.1285
20.1018
20.095
20.095
20.0953
20.0953
20.092
20.092
20.0924
20.0924
20.1046
20.1238
20.105
20.1243
20.1013
20.1277
20.1018
20.1285
20.103
20.0055
20.1031
20.0052
20.1879
19.9102
20.1887
19.9095
20.0064
20.1027
20.0059
20.1028
19.9117
20.1862
19.9109
20.1871
20.1228
20.1041
20.1233
20.1043
20.1262
20.1002
20.1269
20.1007
20.0947
20.0947
20.0948
20.0948
20.0912
20.0912
20.0916
20.0916
20.1041
20.1228
20.1043
20.1233
20.1002
20.1262
20.1007
20.1269
20.1027
20.0065
20.1028
20.0059
20.1862
19.9118
20.187
19.9109
20.0077
20.1027
20.007
20.1027
19.9138
20.1846
19.9127
20.1854
20.122
20.1037
20.1224
20.1038
20.1247
20.0994
20.1254
20.0998
20.0946
20.0946
20.0946
20.0946
20.0906
20.0906
20.0909
20.0909
20.1037
20.122
20.1038
20.1224
20.0994
20.1247
20.0998
20.1254
20.1027
20.0078
20.1027
20.0071
20.1846
19.9139
20.1854
19.9128
20.0094
20.1027
20.0085
20.1027
19.9164
20.1831
19.9151
20.1839
20.1213
20.1035
20.1217
20.1035
20.1234
20.0987
20.1241
20.099
20.0947
20.0947
20.0946
20.0946
20.0904
20.0904
20.0905
20.0905
20.1035
20.1213
20.1035
20.1216
20.0987
20.1234
20.099
20.124
20.1027
20.0095
20.1027
20.0086
20.1831
19.9165
20.1838
19.9151
20.0115
20.103
20.0104
20.1028
19.9196
20.1816
19.918
20.1823
20.1208
20.1035
20.121
20.1035
20.1223
20.0984
20.1228
20.0985
20.0952
20.0952
20.0949
20.0949
20.0904
20.0904
20.0903
20.0903
20.1035
20.1208
20.1035
20.121
20.0984
20.1223
20.0985
20.1228
20.103
20.0116
20.1028
20.0105
20.1816
19.9197
20.1823
19.918
20.0141
20.1033
20.0128
20.1031
19.9234
20.1801
19.9215
20.1808
20.1204
20.1038
20.1206
20.1037
20.1213
20.0983
20.1218
20.0983
20.0959
20.0959
20.0955
20.0955
20.0908
20.0908
20.0905
20.0905
20.1038
20.1204
20.1036
20.1205
20.0983
20.1213
20.0983
20.1217
20.1033
20.0142
20.1031
20.0128
20.1801
19.9235
20.1808
19.9215
20.0172
20.1037
20.0156
20.1035
19.928
20.1786
19.9256
20.1794
20.1202
20.1044
20.1203
20.1041
20.1206
20.0986
20.1209
20.0984
20.097
20.097
20.0964
20.0964
20.0915
20.0915
20.0911
20.0911
20.1044
20.1202
20.1041
20.1203
20.0986
20.1206
20.0984
20.1209
20.1037
20.0173
20.1035
20.0157
20.1786
19.928
20.1793
19.9257
20.0209
20.1041
20.019
20.1039
19.9333
20.177
19.9305
20.1778
20.1202
20.1053
20.1202
20.1049
20.1201
20.0993
20.1203
20.0989
20.0984
20.0984
20.0977
20.0977
20.0927
20.0927
20.092
20.092
20.1053
20.1202
20.1049
20.1202
20.0993
20.1201
20.0989
20.1203
20.1041
20.0209
20.1039
20.019
20.177
19.9334
20.1778
19.9306
20.0251
20.1044
20.0229
20.1042
19.9396
20.1751
19.9363
20.1761
20.1204
20.1065
20.1203
20.1059
20.1198
20.1003
20.1199
20.0998
20.1001
20.1001
20.0992
20.0992
20.0942
20.0942
20.0934
20.0934
20.1065
20.1204
20.1059
20.1202
20.1003
20.1198
20.0998
20.1199
20.1044
20.0251
20.1042
20.0229
20.1751
19.9396
20.1761
19.9364
20.0296
20.1049
20.0273
20.1046
19.947
20.1728
19.9431
20.1741
20.1207
20.108
20.1205
20.1072
20.1198
20.1018
20.1198
20.101
20.102
20.102
20.101
20.101
20.096
20.096
20.095
20.095
20.108
20.1207
20.1072
20.1205
20.1018
20.1198
20.101
20.1198
20.1049
20.0297
20.1046
20.0273
20.1728
19.9471
20.174
19.9432
20.0334
20.1064
20.0319
20.1053
19.9562
20.1693
19.9514
20.1712
20.1212
20.1097
20.1209
20.1088
20.12
20.1036
20.1199
20.1026
20.1042
20.1042
20.1031
20.1031
20.0982
20.0982
20.0971
20.0971
20.1097
20.1212
20.1088
20.1209
20.1036
20.12
20.1026
20.1199
20.1064
20.0335
20.1053
20.0319
20.1693
19.9562
20.1712
19.9514
20.0365
20.108
20.0334
20.1089
19.967
20.1642
19.9613
20.167
20.1226
20.1119
20.1219
20.1108
20.1209
20.1059
20.1204
20.1047
20.1067
20.1067
20.1054
20.1054
20.1008
20.1008
20.0995
20.0995
20.1119
20.1226
20.1108
20.1219
20.1059
20.1209
20.1047
20.1204
20.108
20.0365
20.1089
20.0335
20.1641
19.9671
20.167
19.9614
20.1884
20.0368
20.1611
20.0533
20.1702
20.0457
20.149
20.0594
20.0821
20.0983
20.089
20.0995
20.0894
20.0992
20.0932
20.0994
20.1002
20.1002
20.1003
20.1003
20.0998
20.0998
20.0996
20.0996
20.0983
20.0821
20.0995
20.089
20.0992
20.0894
20.0994
20.0932
20.0369
20.1882
20.0534
20.1609
20.0458
20.17
20.0595
20.1489
20.1598
20.0669
20.1692
20.0572
20.1448
20.0701
20.1541
20.0619
20.0839
20.0953
20.0832
20.0969
20.091
20.0977
20.0903
20.0986
20.0986
20.0986
20.0995
20.0995
20.0985
20.0986
20.0994
20.0994
20.0953
20.0839
20.0969
20.0832
20.0977
20.091
20.0986
20.0904
20.0669
20.1597
20.0572
20.1691
20.0701
20.1448
20.0619
20.154
20.1504
20.0737
20.1544
20.0715
20.1328
20.0776
20.1384
20.0748
20.0872
20.0948
20.0855
20.0947
20.0952
20.0976
20.0927
20.0974
20.0968
20.0968
20.0976
20.0976
20.0972
20.0972
20.0978
20.0978
20.0948
20.0872
20.0948
20.0855
20.0976
20.0952
20.0974
20.0927
20.0737
20.1504
20.0715
20.1544
20.0776
20.1328
20.0748
20.1383
20.1446
20.0748
20.1472
20.0746
20.1238
20.0801
20.128
20.0792
20.0903
20.0958
20.0888
20.0952
20.0998
20.0987
20.0976
20.098
20.0959
20.0959
20.0962
20.0962
20.0964
20.0964
20.0967
20.0967
20.0958
20.0903
20.0952
20.0888
20.0987
20.0998
20.098
20.0976
20.0748
20.1446
20.0746
20.1472
20.0801
20.1238
20.0792
20.128
20.1404
20.0739
20.1424
20.0745
20.1169
20.0804
20.1202
20.0804
20.0927
20.0972
20.0916
20.0965
20.1035
20.1004
20.1018
20.0995
20.0959
20.0959
20.0958
20.0958
20.0964
20.0964
20.0963
20.0963
20.0972
20.0927
20.0965
20.0916
20.1004
20.1035
20.0995
20.1018
20.0739
20.1404
20.0745
20.1423
20.0804
20.1169
20.0804
20.1201
20.1372
20.0723
20.1387
20.0732
20.1114
20.0796
20.114
20.0801
20.0942
20.0987
20.0935
20.0979
20.1062
20.1022
20.1049
20.1013
20.0965
20.0965
20.0961
20.0961
20.097
20.097
20.0967
20.0967
20.0987
20.0942
20.0979
20.0935
20.1022
20.1061
20.1013
20.1049
20.0723
20.1371
20.0732
20.1387
20.0796
20.1114
20.0801
20.114
20.1345
20.0705
20.1358
20.0714
20.107
20.0783
20.1091
20.079
20.0952
20.1001
20.0948
20.0994
20.1081
20.104
20.1072
20.1032
20.0974
20.0974
20.0969
20.0969
20.098
20.098
20.0975
20.0975
20.1001
20.0952
20.0994
20.0948
20.104
20.1081
20.1031
20.1072
20.0705
20.1345
20.0714
20.1358
20.0783
20.1069
20.079
20.1091
20.1323
20.0685
20.1334
20.0695
20.1033
20.0768
20.105
20.0776
20.0957
20.1015
20.0955
20.1008
20.1095
20.1057
20.1089
20.1049
20.0985
20.0985
20.098
20.098
20.0991
20.0991
20.0985
20.0985
20.1015
20.0957
20.1008
20.0955
20.1057
20.1095
20.1049
20.1088
20.0685
20.1323
20.0695
20.1333
20.0768
20.1033
20.0776
20.105
20.1304
20.0667
20.1313
20.0676
20.1002
20.0751
20.1017
20.0759
20.0959
20.1026
20.0958
20.1021
20.1104
20.1071
20.11
20.1064
20.0996
20.0996
20.0991
20.0991
20.1002
20.1002
20.0997
20.0997
20.1026
20.0959
20.1021
20.0958
20.1071
20.1104
20.1064
20.11
20.0667
20.1303
20.0676
20.1313
20.0751
20.1002
20.0759
20.1017
20.1287
20.0649
20.1295
20.0658
20.0976
20.0735
20.0989
20.0743
20.0958
20.1036
20.0958
20.1031
20.1109
20.1083
20.1107
20.1077
20.1007
20.1007
20.1002
20.1002
20.1013
20.1013
20.1008
20.1008
20.1036
20.0958
20.1031
20.0958
20.1083
20.1109
20.1077
20.1107
20.065
20.1286
20.0658
20.1295
20.0735
20.0976
20.0743
20.0988
20.1272
20.0633
20.1279
20.0641
20.0953
20.0719
20.0964
20.0727
20.0955
20.1043
20.0956
20.104
20.1112
20.1092
20.1111
20.1088
20.1016
20.1016
20.1012
20.1012
20.1022
20.1022
20.1018
20.1017
20.1043
20.0955
20.104
20.0957
20.1092
20.1111
20.1088
20.1111
20.0634
20.1271
20.0641
20.1279
20.0719
20.0953
20.0727
20.0964
20.1258
20.0618
20.1265
20.0626
20.0934
20.0704
20.0943
20.0711
20.0951
20.1049
20.0953
20.1046
20.1112
20.1099
20.1112
20.1096
20.1023
20.1023
20.102
20.102
20.1029
20.1029
20.1026
20.1026
20.1049
20.0951
20.1046
20.0953
20.1099
20.1112
20.1096
20.1112
20.0619
20.1258
20.0626
20.1264
20.0704
20.0933
20.0711
20.0943
20.1245
20.0604
20.1252
20.0611
20.0916
20.069
20.0925
20.0697
20.0947
20.1052
20.0949
20.1051
20.111
20.1104
20.1111
20.1102
20.1029
20.1029
20.1026
20.1026
20.1035
20.1035
20.1032
20.1032
20.1052
20.0947
20.1051
20.0949
20.1104
20.111
20.1102
20.1111
20.0604
20.1245
20.0611
20.1251
20.069
20.0916
20.0697
20.0924
20.1234
20.0591
20.124
20.0598
20.09
20.0677
20.0908
20.0683
20.0942
20.1054
20.0944
20.1053
20.1108
20.1107
20.1109
20.1106
20.1032
20.1032
20.1031
20.1031
20.1039
20.1039
20.1037
20.1037
20.1054
20.0942
20.1053
20.0944
20.1107
20.1107
20.1106
20.1109
20.0591
20.1233
20.0598
20.1239
20.0677
20.09
20.0683
20.0908
20.1223
20.0579
20.1228
20.0585
20.0886
20.0664
20.0893
20.067
20.0936
20.1054
20.0939
20.1054
20.1103
20.1108
20.1106
20.1108
20.1034
20.1034
20.1033
20.1033
20.104
20.104
20.104
20.104
20.1054
20.0936
20.1054
20.0939
20.1108
20.1103
20.1107
20.1106
20.0579
20.1222
20.0585
20.1228
20.0664
20.0886
20.067
20.0893
20.1212
20.0568
20.1218
20.0573
20.0873
20.0652
20.0879
20.0658
20.093
20.1053
20.0933
20.1054
20.1098
20.1107
20.1101
20.1108
20.1034
20.1034
20.1034
20.1034
20.104
20.104
20.1041
20.1041
20.1053
20.093
20.1054
20.0933
20.1107
20.1098
20.1108
20.1101
20.0568
20.1212
20.0573
20.1217
20.0652
20.0873
20.0658
20.0879
20.1203
20.0557
20.1207
20.0562
20.0861
20.0641
20.0867
20.0647
20.0923
20.105
20.0927
20.1052
20.1091
20.1105
20.1095
20.1106
20.1033
20.1033
20.1034
20.1034
20.1039
20.1039
20.104
20.104
20.105
20.0923
20.1052
20.0927
20.1105
20.1091
20.1106
20.1095
20.0557
20.1202
20.0562
20.1207
20.0641
20.0861
20.0647
20.0867
20.1193
20.0548
20.1198
20.0552
20.085
20.0631
20.0855
20.0636
20.0917
20.1048
20.092
20.1049
20.1084
20.1101
20.1088
20.1103
20.1031
20.1031
20.1032
20.1032
20.1035
20.1035
20.1037
20.1037
20.1047
20.0917
20.1049
20.092
20.1101
20.1084
20.1103
20.1088
20.0548
20.1193
20.0552
20.1198
20.0631
20.085
20.0636
20.0855
20.1185
20.0539
20.1189
20.0543
20.084
20.0621
20.0844
20.0626
20.091
20.1043
20.0913
20.1046
20.1075
20.1096
20.1079
20.1099
20.1027
20.1027
20.1029
20.1029
20.1031
20.1031
20.1033
20.1033
20.1043
20.091
20.1046
20.0914
20.1096
20.1075
20.1099
20.1079
20.0539
20.1184
20.0543
20.1188
20.0622
20.0839
20.0626
20.0844
20.1177
20.0532
20.1181
20.0535
20.083
20.0613
20.0835
20.0617
20.0904
20.1038
20.0907
20.1041
20.1065
20.109
20.107
20.1093
20.1023
20.1023
20.1025
20.1025
20.1025
20.1025
20.1028
20.1028
20.1038
20.0904
20.1041
20.0907
20.109
20.1065
20.1093
20.107
20.0532
20.1176
20.0535
20.118
20.0613
20.083
20.0617
20.0835
20.1169
20.0525
20.1173
20.0528
20.0822
20.0604
20.0826
20.0608
20.0898
20.1033
20.0901
20.1036
20.1059
20.1083
20.1062
20.1087
20.1018
20.1018
20.1021
20.1021
20.1019
20.1019
20.1022
20.1022
20.1033
20.0898
20.1035
20.0901
20.1083
20.1059
20.1087
20.1062
20.0525
20.1169
20.0528
20.1173
20.0605
20.0822
20.0609
20.0826
20.1163
20.0519
20.1166
20.0522
20.0814
20.0598
20.0818
20.0601
20.0893
20.1027
20.0896
20.103
20.1055
20.1076
20.1057
20.108
20.1013
20.1013
20.1016
20.1016
20.1012
20.1012
20.1015
20.1015
20.1027
20.0894
20.103
20.0896
20.1076
20.1055
20.108
20.1057
20.0519
20.1163
20.0522
20.1166
20.0598
20.0814
20.0601
20.0818
20.1158
20.0515
20.116
20.0517
20.0808
20.0592
20.0811
20.0595
20.0889
20.1022
20.0891
20.1024
20.105
20.1069
20.1053
20.1072
20.1008
20.1008
20.101
20.101
20.1005
20.1005
20.1009
20.1009
20.1022
20.0889
20.1024
20.0891
20.1069
20.105
20.1072
20.1053
20.0515
20.1158
20.0517
20.116
20.0592
20.0808
20.0595
20.0811
20.1154
20.0512
20.1156
20.0513
20.0804
20.0588
20.0806
20.059
20.0886
20.1017
20.0887
20.102
20.1046
20.1061
20.1048
20.1065
20.1004
20.1004
20.1006
20.1006
20.0999
20.0999
20.1002
20.1002
20.1017
20.0886
20.1019
20.0887
20.1061
20.1046
20.1065
20.1048
20.0512
20.1154
20.0514
20.1155
20.0588
20.0804
20.059
20.0806
20.1151
20.0511
20.1153
20.0512
20.0801
20.0585
20.0802
20.0586
20.0884
20.1013
20.0884
20.1015
20.1041
20.1055
20.1043
20.1058
20.1
20.1
20.1002
20.1002
20.0993
20.0993
20.0996
20.0996
20.1013
20.0884
20.1015
20.0885
20.1055
20.1041
20.1058
20.1043
20.0512
20.1151
20.0512
20.1152
20.0585
20.0801
20.0586
20.0802
20.1151
20.0512
20.1151
20.0512
20.08
20.0584
20.08
20.0584
20.0883
20.1011
20.0883
20.1012
20.1037
20.1049
20.1039
20.1052
20.0998
20.0998
20.0999
20.0999
20.0988
20.0988
20.099
20.099
20.1011
20.0883
20.1012
20.0883
20.1049
20.1037
20.1052
20.1039
20.0513
20.115
20.0512
20.115
20.0584
20.08
20.0584
20.08
20.1152
20.0515
20.1151
20.0513
20.0801
20.0584
20.08
20.0584
20.0883
20.1009
20.0883
20.101
20.1034
20.1044
20.1036
20.1047
20.0997
20.0997
20.0997
20.0997
20.0985
20.0984
20.0986
20.0986
20.1009
20.0883
20.101
20.0883
20.1044
20.1034
20.1046
20.1036
20.0515
20.1151
20.0514
20.115
20.0585
20.0801
20.0584
20.08
20.1154
20.0521
20.1153
20.0517
20.0804
20.0587
20.0802
20.0585
20.0885
20.101
20.0884
20.1009
20.1032
20.1041
20.1033
20.1043
20.0997
20.0997
20.0997
20.0997
20.0983
20.0983
20.0983
20.0983
20.101
20.0885
20.1009
20.0884
20.1041
20.1032
20.1043
20.1033
20.0521
20.1154
20.0517
20.1152
20.0587
20.0804
20.0585
20.0802
20.1159
20.0531
20.1156
20.0526
20.081
20.0591
20.0807
20.0589
20.0889
20.1011
20.0887
20.101
20.1031
20.104
20.1032
20.104
20.1
20.1
20.0998
20.0998
20.0983
20.0983
20.0982
20.0982
20.1011
20.0889
20.101
20.0887
20.104
20.1031
20.104
20.1032
20.0531
20.1159
20.0526
20.1156
20.0591
20.081
20.0589
20.0807
20.1165
20.0544
20.1162
20.0537
20.0819
20.0595
20.0814
20.0593
20.0894
20.1015
20.0891
20.1013
20.1032
20.104
20.1032
20.104
20.1005
20.1005
20.1002
20.1002
20.0985
20.0985
20.0984
20.0984
20.1015
20.0894
20.1013
20.0891
20.104
20.1032
20.104
20.1032
20.0544
20.1165
20.0537
20.1161
20.0596
20.0819
20.0593
20.0814
20.1174
20.0556
20.1169
20.0553
20.083
20.0604
20.0824
20.0598
20.0901
20.102
20.0897
20.1017
20.1034
20.1042
20.1033
20.1041
20.1011
20.1011
20.1008
20.1008
20.099
20.099
20.0987
20.0987
20.102
20.0901
20.1017
20.0897
20.1042
20.1034
20.1041
20.1033
20.0556
20.1173
20.0553
20.1169
20.0604
20.083
20.0598
20.0824
20.1184
20.0564
20.1179
20.056
20.0844
20.0618
20.0837
20.0611
20.0909
20.1028
20.0905
20.1024
20.1037
20.1047
20.1036
20.1044
20.1021
20.1021
20.1016
20.1016
20.0997
20.0997
20.0993
20.0993
20.1028
20.0909
20.1024
20.0905
20.1047
20.1037
20.1044
20.1036
20.0565
20.1184
20.056
20.1179
20.0618
20.0844
20.0611
20.0837
20.1196
20.0576
20.119
20.057
20.0861
20.0631
20.0852
20.0624
20.0919
20.1038
20.0914
20.1033
20.1042
20.1054
20.104
20.105
20.1032
20.1032
20.1026
20.1026
20.1007
20.1007
20.1002
20.1002
20.1038
20.0919
20.1033
20.0914
20.1054
20.1042
20.105
20.104
20.0577
20.1196
20.057
20.119
20.0632
20.0861
20.0625
20.0852
20.1208
20.0591
20.1202
20.0583
20.088
20.0646
20.087
20.0639
20.093
20.1049
20.0924
20.1043
20.1049
20.1063
20.1045
20.1058
20.1045
20.1045
20.1038
20.1038
20.102
20.102
20.1013
20.1013
20.1049
20.093
20.1043
20.0924
20.1063
20.1049
20.1058
20.1045
20.0591
20.1208
20.0583
20.1202
20.0646
20.088
20.0639
20.087
20.1219
20.0607
20.1214
20.0598
20.0901
20.0662
20.0891
20.0654
20.0942
20.1062
20.0936
20.1055
20.1056
20.1074
20.1052
20.1068
20.106
20.106
20.1053
20.1053
20.1035
20.1035
20.1027
20.1027
20.1062
20.0942
20.1055
20.0936
20.1074
20.1056
20.1068
20.1052
20.0607
20.1219
20.0599
20.1213
20.0662
20.0901
20.0654
20.0891
20.1226
20.0627
20.1223
20.0616
20.0922
20.0681
20.0912
20.0671
20.0956
20.1076
20.0949
20.1069
20.1065
20.1087
20.1061
20.108
20.1077
20.1077
20.1069
20.1069
20.1051
20.1051
20.1043
20.1043
20.1076
20.0956
20.1069
20.0949
20.1087
20.1065
20.108
20.1061
20.0627
20.1225
20.0616
20.1223
20.0681
20.0922
20.0671
20.0912
20.1222
20.0654
20.1226
20.0639
20.094
20.0701
20.0932
20.069
20.0972
20.1091
20.0964
20.1084
20.1076
20.1102
20.1071
20.1094
20.1095
20.1095
20.1086
20.1086
20.107
20.107
20.106
20.106
20.1091
20.0972
20.1084
20.0964
20.1102
20.1076
20.1094
20.1071
20.0654
20.1222
20.0639
20.1225
20.0702
20.094
20.0691
20.0932
20.1173
20.072
20.121
20.0676
20.0928
20.0748
20.0943
20.0717
20.0989
20.1109
20.0979
20.11
20.1087
20.1119
20.1081
20.111
20.1115
20.1115
20.1105
20.1105
20.1091
20.109
20.108
20.108
20.1109
20.0989
20.11
20.0979
20.1119
20.1087
20.111
20.1081
20.072
20.1173
20.0677
20.121
20.0748
20.0928
20.0717
20.0942
20.1311
20.0601
20.1125
20.0775
20.103
20.0678
20.09
20.0791
20.1001
20.1133
20.1002
20.112
20.1103
20.1142
20.1098
20.113
20.1134
20.1134
20.1125
20.1125
20.1112
20.1112
20.1101
20.1101
20.1133
20.1002
20.112
20.1002
20.1142
20.1103
20.113
20.1098
20.0601
20.1311
20.0775
20.1125
20.0678
20.103
20.0791
20.09
20.2096
20.0308
20.1763
20.0474
20.2005
20.0327
20.1696
20.0496
20.0707
20.0941
20.0813
20.0977
20.0756
20.0964
20.0847
20.0987
20.1002
20.1002
20.1007
20.1007
20.1002
20.1002
20.1005
20.1005
20.0942
20.0707
20.0977
20.0814
20.0964
20.0757
20.0987
20.0848
20.0309
20.2094
20.0474
20.1762
20.0328
20.2003
20.0497
20.1694
20.1687
20.0751
20.1818
20.0608
20.166
20.0702
20.177
20.058
20.0749
20.0892
20.0735
20.0914
20.0784
20.092
20.0775
20.0941
20.0969
20.0969
20.0989
20.0989
20.098
20.098
20.0994
20.0994
20.0892
20.0749
20.0914
20.0735
20.0921
20.0784
20.0941
20.0775
20.0751
20.1686
20.0608
20.1816
20.0701
20.1659
20.058
20.1769
20.1582
20.0846
20.1623
20.0815
20.1566
20.0781
20.1603
20.0756
20.0788
20.088
20.0769
20.0883
20.0817
20.0911
20.08
20.0913
20.094
20.094
20.0953
20.0953
20.0957
20.0957
20.0968
20.0968
20.088
20.0788
20.0883
20.0769
20.0911
20.0817
20.0913
20.08
20.0846
20.1582
20.0815
20.1622
20.0781
20.1565
20.0756
20.1603
20.1535
20.0865
20.1555
20.086
20.1517
20.0795
20.1538
20.0792
20.0815
20.0884
20.0803
20.0881
20.0844
20.0917
20.0832
20.0913
20.0926
20.0926
20.0931
20.0931
20.0946
20.0946
20.095
20.095
20.0884
20.0815
20.0881
20.0804
20.0917
20.0844
20.0913
20.0832
20.0864
20.1534
20.086
20.1554
20.0795
20.1517
20.0792
20.1538
20.1506
20.0862
20.1519
20.0865
20.1486
20.0788
20.15
20.0792
20.0829
20.089
20.0823
20.0887
20.086
20.0927
20.0853
20.0921
20.0923
20.0923
20.0923
20.0923
20.0944
20.0944
20.0944
20.0944
20.089
20.0829
20.0887
20.0823
20.0927
20.086
20.0921
20.0853
20.0862
20.1506
20.0864
20.1519
20.0788
20.1485
20.0792
20.15
20.1486
20.0851
20.1495
20.0857
20.1462
20.0774
20.1473
20.0781
20.0834
20.0898
20.0832
20.0894
20.0868
20.0939
20.0865
20.0933
20.0927
20.0927
20.0924
20.0924
20.0949
20.0949
20.0946
20.0946
20.0898
20.0834
20.0894
20.0832
20.0939
20.0868
20.0933
20.0865
20.0851
20.1485
20.0857
20.1495
20.0774
20.1462
20.0781
20.1473
20.1469
20.0838
20.1477
20.0845
20.1443
20.0757
20.1452
20.0765
20.0836
20.0905
20.0836
20.0901
20.0872
20.095
20.087
20.0944
20.0935
20.0935
20.0931
20.0931
20.0958
20.0958
20.0953
20.0953
20.0905
20.0836
20.0901
20.0836
20.0949
20.0872
20.0944
20.087
20.0838
20.1468
20.0845
20.1476
20.0757
20.1442
20.0766
20.1452
20.1454
20.0825
20.1461
20.0832
20.1426
20.074
20.1434
20.0749
20.0835
20.0911
20.0836
20.0908
20.0872
20.0959
20.0872
20.0954
20.0944
20.0944
20.0939
20.0939
20.0968
20.0968
20.0963
20.0963
20.0911
20.0835
20.0908
20.0836
20.0959
20.0872
20.0954
20.0872
20.0825
20.1454
20.0832
20.1461
20.074
20.1426
20.0749
20.1434
20.1442
20.0811
20.1448
20.0818
20.1412
20.0724
20.1419
20.0732
20.0832
20.0917
20.0834
20.0914
20.0871
20.0967
20.0872
20.0963
20.0953
20.0953
20.0948
20.0948
20.0979
20.0979
20.0974
20.0974
20.0917
20.0832
20.0914
20.0834
20.0967
20.0871
20.0963
20.0872
20.0811
20.1441
20.0818
20.1447
20.0724
20.1411
20.0732
20.1418
20.143
20.0799
20.1436
20.0805
20.1399
20.0708
20.1405
20.0716
20.0828
20.0921
20.083
20.0919
20.0868
20.0973
20.0869
20.097
20.0961
20.0961
20.0957
20.0957
20.0988
20.0988
20.0984
20.0984
20.0921
20.0828
20.0919
20.083
20.0973
20.0868
20.097
20.0869
20.0798
20.1429
20.0805
20.1435
20.0708
20.1398
20.0716
20.1405
20.1419
20.0786
20.1424
20.0792
20.1387
20.0694
20.1393
20.0701
20.0824
20.0924
20.0826
20.0922
20.0864
20.0978
20.0866
20.0976
20.0968
20.0968
20.0965
20.0965
20.0996
20.0996
20.0992
20.0992
20.0924
20.0824
20.0922
20.0826
20.0978
20.0864
20.0976
20.0866
20.0786
20.1419
20.0792
20.1424
20.0694
20.1386
20.0701
20.1392
20.1409
20.0774
20.1414
20.078
20.1376
20.068
20.1381
20.0687
20.0819
20.0925
20.0821
20.0925
20.0859
20.0981
20.0861
20.098
20.0974
20.0974
20.0971
20.0971
20.1003
20.1003
20.1
20.1
20.0925
20.0819
20.0925
20.0821
20.0981
20.0859
20.098
20.0861
20.0774
20.1409
20.078
20.1414
20.068
20.1375
20.0687
20.1381
20.14
20.0763
20.1404
20.0769
20.1365
20.0667
20.137
20.0674
20.0813
20.0926
20.0816
20.0926
20.0854
20.0983
20.0856
20.0982
20.0978
20.0978
20.0976
20.0976
20.1008
20.1008
20.1006
20.1006
20.0926
20.0813
20.0926
20.0816
20.0983
20.0854
20.0982
20.0856
20.0763
20.1399
20.0769
20.1404
20.0667
20.1365
20.0674
20.137
20.1391
20.0753
20.1395
20.0758
20.1355
20.0655
20.136
20.0661
20.0808
20.0925
20.0811
20.0926
20.0848
20.0983
20.0851
20.0983
20.098
20.098
20.0979
20.0979
20.1011
20.1011
20.101
20.101
20.0925
20.0808
20.0926
20.0811
20.0983
20.0848
20.0983
20.0851
20.0753
20.139
20.0758
20.1395
20.0655
20.1355
20.0661
20.136
20.1382
20.0743
20.1387
20.0747
20.1346
20.0644
20.1351
20.0649
20.0802
20.0924
20.0805
20.0925
20.0842
20.0982
20.0845
20.0983
20.0982
20.0982
20.0981
20.0981
20.1013
20.1013
20.1012
20.1012
20.0924
20.0802
20.0925
20.0805
20.0982
20.0842
20.0983
20.0845
20.0743
20.1382
20.0747
20.1386
20.0644
20.1346
20.065
20.135
20.1374
20.0733