/*--------------------------------*- C++ -*----------------------------------*\
  =========                 |
  \\      /  F ield         | OpenFOAM: The Open Source CFD Toolbox
   \\    /   O peration     | Website:  https://openfoam.org
    \\  /    A nd           | Version:  9
     \\/     M anipulation  |
\*---------------------------------------------------------------------------*/
FoamFile
{
    format      ascii;
    class       volScalarField;
    location    "3.1";
    object      nut;
}
// * * * * * * * * * * * * * * * * * * * * * * * * * * * * * * * * * * * * * //

dimensions      [0 2 -1 0 0 0 0];

internalField   nonuniform List<scalar> 
36360
(
0.0127419
0.0123818
0.0102643
0.0101116
0.00158196
0.00152937
0.00110911
0.00122576
0.0113301
0.0110216
0.00897013
0.00867015
0.00130588
0.00115418
0.000958905
0.000784225
0.0110682
0.0110671
0.00879407
0.00879298
0.00108587
0.00108574
0.000716325
0.000716181
0.0110181
0.0113243
0.00866637
0.00896363
0.00115382
0.00130536
0.00078379
0.00095828
0.0123744
0.0127336
0.0101035
0.0102552
0.0015288
0.00158131
0.00122509
0.00110835
0.0156415
0.0154711
0.01434
0.0140776
0.00195237
0.00186147
0.00180631
0.00172056
0.0146334
0.0143204
0.013139
0.0128234
0.00167241
0.00155329
0.0015165
0.00138372
0.014269
0.014268
0.0128102
0.0128092
0.0014981
0.00149801
0.00132247
0.00132236
0.0143173
0.0146284
0.0128201
0.0131336
0.00155303
0.00167203
0.00138342
0.00151606
0.0154647
0.0156344
0.0140708
0.0143326
0.00186102
0.00195189
0.00172006
0.00180576
0.0177541
0.0176884
0.0167683
0.0166588
0.00215542
0.00206701
0.00206394
0.00197357
0.0169788
0.0166847
0.0158948
0.0155902
0.00189866
0.00179684
0.00179628
0.00168707
0.0165981
0.0165972
0.015516
0.015515
0.00174972
0.00174965
0.00163645
0.00163637
0.0166819
0.0169745
0.0155872
0.0158901
0.00179664
0.00189836
0.00168684
0.00179594
0.0176828
0.0177478
0.0166529
0.0167618
0.00206665
0.00215503
0.00197317
0.00206351
0.0193711
0.0193755
0.0186146
0.0185864
0.00229808
0.00221438
0.00223226
0.00214619
0.0187366
0.0184593
0.0179167
0.0176314
0.00205884
0.00196715
0.00198495
0.00188879
0.0183639
0.018363
0.0175385
0.0175376
0.00192498
0.00192492
0.00184441
0.00184435
0.0184569
0.0187328
0.0176289
0.0179126
0.00196699
0.00205859
0.00188861
0.00198467
0.0193706
0.0193656
0.0185812
0.0186089
0.00221408
0.00229776
0.00214586
0.00223191
0.020621
0.020678
0.0200347
0.0200672
0.00240413
0.00232472
0.00235476
0.00227328
0.0200865
0.0198227
0.0194537
0.0191835
0.00217799
0.00209298
0.00212255
0.00203451
0.019727
0.0197263
0.0190873
0.0190866
0.00205412
0.00205407
0.00199414
0.00199409
0.0198206
0.0200832
0.0191813
0.0194502
0.00209284
0.00217778
0.00203436
0.00212232
0.0206738
0.0206161
0.0200627
0.0200297
0.00232446
0.00240386
0.00227301
0.00235446
0.0215973
0.0216942
0.0211379
0.021216
0.00248501
0.00240912
0.00244714
0.00236958
0.0211388
0.020886
0.0206438
0.0203857
0.00226887
0.00218862
0.00222636
0.00214392
0.0207926
0.020792
0.020291
0.0202903
0.00215212
0.00215208
0.00210633
0.00210629
0.0208842
0.021136
0.0203838
0.0206407
0.00218851
0.00226869
0.00214379
0.00222617
0.0216905
0.0215929
0.021212
0.0211335
0.0024089
0.00248477
0.00236935
0.00244689
0.022367
0.0224954
0.0220041
0.0221175
0.00254766
0.00247459
0.00251823
0.00244383
0.0219683
0.0217244
0.0215771
0.0213289
0.00233927
0.0022626
0.00230623
0.0022279
0.0216335
0.021633
0.0212368
0.0212363
0.00222786
0.00222783
0.00219235
0.00219231
0.0217228
0.0219658
0.0213273
0.0215745
0.0022625
0.00233912
0.00222779
0.00230607
0.022492
0.0223632
0.022114
0.0220001
0.00247441
0.00254745
0.00244363
0.00251801
0.0229774
0.0231305
0.0226892
0.0228305
0.00259658
0.00252577
0.00257356
0.00250168
0.0226261
0.0223896
0.0223155
0.0220753
0.00239429
0.00232039
0.00236842
0.00229323
0.0223009
0.0223004
0.0219857
0.0219852
0.00228702
0.00228699
0.00225921
0.00225918
0.0223881
0.0226238
0.0220738
0.0223131
0.0023203
0.00239416
0.00229314
0.00236828
0.0231274
0.0229738
0.0228273
0.0226856
0.00252561
0.0025964
0.0025015
0.00257337
0.0234626
0.0236351
0.0232333
0.0233966
0.00263488
0.00256587
0.00261685
0.00254698
0.023149
0.0229189
0.0229019
0.0226687
0.00243745
0.00236575
0.00241715
0.00234442
0.0228319
0.0228315
0.0225809
0.0225804
0.00233346
0.00233343
0.00231162
0.00231159
0.0229176
0.0231469
0.0226673
0.0228997
0.00236567
0.00243733
0.00234434
0.00241703
0.0236322
0.0234592
0.0233937
0.02323
0.00256572
0.00263471
0.00254683
0.00261668
0.0238477
0.0240352
0.0236659
0.0238462
0.0026647
0.00259718
0.00265067
0.00258244
0.0235642
0.0233395
0.0233682
0.0231408
0.00247125
0.00240132
0.00245537
0.00238461
0.0232541
0.0232537
0.0230546
0.0230542
0.0023699
0.00236987
0.00235277
0.00235275
0.0233383
0.0235623
0.0231396
0.0233661
0.00240125
0.00247114
0.00238453
0.00245526
0.0240326
0.0238445
0.0238435
0.0236627
0.00259705
0.00266449
0.0025823
0.00265049
0.0241511
0.0243502
0.0240083
0.0242017
0.00268774
0.00262141
0.00267694
0.00261003
0.0238918
0.0236718
0.0237374
0.0235151
0.00249752
0.00242904
0.00248521
0.00241604
0.0235878
0.0235874
0.0234304
0.02343
0.00239832
0.00239829
0.00238499
0.00238497
0.0236707
0.0238899
0.0235139
0.0237355
0.00242897
0.00249742
0.00241598
0.0024851
0.0243478
0.0241481
0.0241992
0.0240053
0.00262129
0.00268762
0.0026099
0.00267675
0.0243863
0.0245946
0.024276
0.0244798
0.00270513
0.00263981
0.00269701
0.00263121
0.0241467
0.023931
0.024027
0.0238092
0.00251761
0.00245033
0.00250824
0.0024404
0.0238483
0.023848
0.0237259
0.0237255
0.00242019
0.00242017
0.00240998
0.00240996
0.0239299
0.024145
0.0238081
0.0240253
0.00245027
0.00251752
0.00244033
0.00250815
0.0245923
0.0243834
0.0244774
0.0242732
0.0026397
0.00270504
0.0026311
0.00269692
0.0245639
0.0247799
0.0244813
0.0246934
0.00271803
0.00265337
0.00271207
0.00264709
0.024341
0.0241289
0.0242504
0.0240364
0.00253257
0.00246628
0.00252565
0.0024589
0.0240476
0.0240472
0.0239545
0.0239541
0.00243662
0.0024366
0.00242901
0.00242899
0.0241279
0.0243393
0.0240354
0.0242486
0.00246622
0.00253248
0.00245884
0.00252556
0.0247776
0.0245615
0.0246911
0.0244787
0.00265326
0.00271796
0.00264698
0.00271199
0.0246931
0.0249147
0.0246336
0.0248525
0.00272685
0.00266278
0.00272285
0.00265851
0.0244835
0.0242747
0.0244178
0.0242074
0.00254316
0.0024777
0.00253835
0.0024725
0.0241946
0.0241943
0.0241266
0.0241263
0.00244845
0.00244843
0.00244306
0.00244304
0.0242737
0.0244818
0.0242063
0.0244161
0.00247765
0.00254307
0.00247244
0.00253826
0.0249125
0.0246907
0.0248503
0.0246314
0.00266266
0.0027267
0.00265839
0.00272275
0.0247804
0.0250059
0.0247413
0.0249648
0.00273227
0.00266857
0.00272993
0.00266604
0.0245812
0.0243755
0.0245371
0.0243299
0.00254997
0.00248524
0.00254698
0.00248191
0.0242967
0.0242964
0.0242504
0.0242501
0.00245633
0.00245631
0.00245284
0.00245282
0.0243746
0.0245796
0.0243289
0.0245354
0.00248518
0.00254988
0.00248186
0.0025469
0.0250037
0.0247777
0.0249626
0.0247388
0.00266845
0.00273215
0.00266593
0.00272979
0.0248296
0.0250585
0.0248094
0.0250365
0.00273438
0.00267106
0.00273368
0.00267018
0.0246398
0.0244369
0.0246146
0.0244104
0.00255342
0.00248933
0.00255208
0.00248768
0.0243594
0.0243591
0.0243322
0.0243319
0.00246072
0.0024607
0.00245892
0.0024589
0.024436
0.0246383
0.0244095
0.024613
0.00248928
0.00255333
0.00248763
0.00255199
0.0250565
0.0248271
0.0250343
0.0248068
0.00267093
0.00273431
0.00267006
0.00273356
0.0248477
0.0250785
0.0248429
0.0250723
0.00273378
0.0026706
0.00273436
0.00267108
0.0246636
0.0244627
0.024655
0.0244538
0.00255385
0.00249033
0.00255396
0.0024902
0.024386
0.0243857
0.0243768
0.0243765
0.00246199
0.00246197
0.00246172
0.0024617
0.0244617
0.024662
0.0244528
0.0246535
0.00249028
0.00255377
0.00249015
0.00255388
0.025076
0.024845
0.0250703
0.0248406
0.00267049
0.00273367
0.00267097
0.00273426
0.024832
0.025065
0.0248429
0.0250748
0.00273077
0.00266773
0.00273248
0.00266942
0.0246541
0.0244561
0.0246623
0.0244633
0.00255168
0.00248867
0.0025531
0.00248985
0.0243807
0.0243804
0.0243873
0.024387
0.00246058
0.00246056
0.00246162
0.00246161
0.0244551
0.0246524
0.0244623
0.0246606
0.00248863
0.00255161
0.00248981
0.00255303
0.0250625
0.024829
0.0250723
0.0248403
0.00266764
0.00273061
0.00266933
0.00273238
0.0247889
0.025023
0.0248134
0.0250469
0.00272526
0.00266234
0.00272823
0.00266527
0.0246152
0.0244192
0.0246377
0.0244407
0.00254698
0.0024844
0.0025496
0.00248682
0.0243449
0.0243446
0.0243659
0.0243656
0.00245651
0.00245649
0.00245883
0.00245881
0.0244182
0.0246135
0.0244397
0.024636
0.00248435
0.00254691
0.00248677
0.00254953
0.0250203
0.0247857
0.0250443
0.0248106
0.00266223
0.00272507
0.00266517
0.0027281
0.0247184
0.0249541
0.0247566
0.0249911
0.00271776
0.00265485
0.00272178
0.00265881
0.0245491
0.0243547
0.024585
0.0243899
0.00254005
0.00247781
0.00254377
0.00248138
0.0242813
0.024281
0.0243161
0.0243157
0.0024501
0.00245009
0.00245358
0.00245357
0.0243537
0.0245472
0.0243889
0.0245832
0.00247778
0.00254001
0.00248133
0.00254372
0.024952
0.0247156
0.0249887
0.0247534
0.00265485
0.00271771
0.00265875
0.00272161
0.0246239
0.0248606
0.024674
0.0249101
0.00270812
0.00264521
0.00271314
0.00265022
0.0244565
0.0242636
0.0245056
0.024312
0.00253095
0.00246901
0.00253574
0.00247367
0.024191
0.0241906
0.0242389
0.0242386
0.00244146
0.00244144
0.00244604
0.00244603
0.0242625
0.0244547
0.0243109
0.0245037
0.00246897
0.00253088
0.00247363
0.0025357
0.0248581
0.024621
0.0249077
0.0246712
0.00264512
0.00270801
0.0026502
0.00271305
0.0245044
0.0247426
0.0245669
0.0248041
0.00269662
0.00263361
0.00270253
0.0026396
0.0243385
0.0241467
0.0244002
0.0242079
0.00251978
0.00245808
0.00252561
0.0024638
0.0240749
0.0240746
0.0241356
0.0241353
0.00243065
0.00243063
0.00243631
0.00243629
0.0241457
0.0243367
0.0242068
0.0243984
0.00245802
0.00251967
0.00246375
0.00252551
0.0247391
0.0245001
0.0248007
0.0245631
0.00263336
0.00269637
0.00263941
0.00270236
0.0243586
0.024599
0.0244341
0.0246731
0.00268318
0.00261995
0.00269014
0.00262699
0.0241954
0.0240048
0.0242695
0.0240784
0.00250656
0.00244506
0.00251341
0.00245182
0.0239337
0.0239334
0.0240069
0.0240066
0.00241773
0.00241771
0.00242444
0.00242442
0.0240038
0.024194
0.0240774
0.024268
0.00244499
0.00250644
0.00245176
0.00251329
0.0245975
0.0243567
0.0246708
0.024431
0.00261973
0.00268297
0.00262675
0.00268991
0.0241904
0.0244332
0.0242768
0.0245184
0.0026676
0.00260427
0.00267556
0.00261231
0.0240285
0.0238381
0.0241145
0.023924
0.0024913
0.00242994
0.00249917
0.00243775
0.0237676
0.0237672
0.0238532
0.0238529
0.0024027
0.00240268
0.00241047
0.00241045
0.0238371
0.0240268
0.0239231
0.024113
0.00242988
0.00249118
0.00243769
0.00249905
0.0244307
0.0241874
0.0245165
0.0242751
0.00260405
0.00266743
0.00261209
0.00267543
0.0239983
0.0242435
0.024097
0.0243407
0.00265014
0.00258647
0.00265909
0.00259557
0.0238367
0.0236466
0.0239354
0.023745
0.00247394
0.00241274
0.00248287
0.00242159
0.0235766
0.0235763
0.0236747
0.0236744
0.00238557
0.00238555
0.00239439
0.00239437
0.0236456
0.0238349
0.023744
0.0239336
0.00241268
0.00247384
0.00242153
0.00248275
0.0242404
0.0239947
0.024338
0.024094
0.00258627
0.00264985
0.00259536
0.00265883
0.0237801
0.0240286
0.023892
0.0241384
0.00263066
0.00256668
0.00264058
0.00257677
0.0236189
0.0234302
0.0237304
0.023541
0.0024545
0.00239341
0.00246446
0.00240333
0.0233607
0.0233604
0.0234713
0.023471
0.0023663
0.00236628
0.00237619
0.00237617
0.0234292
0.0236172
0.02354
0.0237286
0.00239335
0.00245439
0.00240327
0.00246436
0.0240256
0.0237761
0.0241353
0.0238882
0.00256649
0.00263044
0.00257658
0.00264033
0.0235376
0.0237904
0.0236613
0.0239118
0.00260909
0.00254484
0.00262008
0.00255594
0.0233766
0.0231886
0.0235003
0.0233121
0.00243298
0.00237195
0.00244398
0.00238294
0.0231196
0.0231193
0.0232428
0.0232425
0.00234487
0.00234485
0.00235585
0.00235583
0.0231877
0.0233751
0.0233111
0.0234987
0.00237189
0.00243288
0.00238288
0.00244387
0.0237885
0.0235351
0.0239095
0.0236583
0.00254469
0.00260891
0.00255576
0.00261987
0.0232714
0.0235281
0.0234072
0.0236618
0.00258541
0.00252084
0.0025975
0.00253308
0.0231095
0.0229216
0.0232458
0.0230579
0.00240928
0.00234827
0.00242139
0.00236039
0.0228528
0.0228525
0.0229889
0.0229886
0.00232121
0.00232119
0.00233332
0.0023333
0.0229207
0.0231081
0.023057
0.0232443
0.00234822
0.0024092
0.00236033
0.0024213
0.0235261
0.0232688
0.0236598
0.0234048
0.00252072
0.00258527
0.00253295
0.00259734
0.0229798
0.0232404
0.0231284
0.0233869
0.00255936
0.00249441
0.00257265
0.00250788
0.0228167
0.0226285
0.0229659
0.0227778
0.00238326
0.00232228
0.00239655
0.00233556
0.0225598
0.0225595
0.0227091
0.0227088
0.00229523
0.00229521
0.0023085
0.00230849
0.0226275
0.0228152
0.0227769
0.0229644
0.00232223
0.00238319
0.00233551
0.00239647
0.0232383
0.022977
0.0233848
0.0231259
0.00249431
0.00255925
0.00250777
0.00257253
0.0226621
0.0229271
0.0228238
0.0230864
0.00253098
0.00246562
0.00254542
0.00248026
0.0224977
0.0223088
0.0226601
0.0224715
0.00235489
0.00229391
0.00236936
0.00230839
0.0222402
0.0222399
0.0224029
0.0224025
0.00226685
0.00226683
0.00228133
0.00228132
0.0223079
0.0224962
0.0224706
0.0226585
0.00229386
0.00235481
0.00230834
0.00236928
0.022925
0.0226593
0.0230843
0.0228212
0.00246552
0.00253086
0.00248016
0.00254531
0.0223181
0.0225876
0.022493
0.0227601
0.00250031
0.00243447
0.00251589
0.00245029
0.0221518
0.0219621
0.0223277
0.0221384
0.00232413
0.0022631
0.0023398
0.00227881
0.0218932
0.0218929
0.0220697
0.0220694
0.00223601
0.00223599
0.00225173
0.00225172
0.0219611
0.0221502
0.0221375
0.0223262
0.00226305
0.00232405
0.00227876
0.00233972
0.0225855
0.0223153
0.022758
0.0224904
0.00243436
0.00250019
0.00245019
0.00251578
0.0219473
0.0222213
0.0221357
0.0224074
0.00246734
0.00240097
0.00248408
0.00241797
0.0217782
0.0215871
0.0219681
0.0217777
0.00229092
0.00222976
0.00230782
0.00224675
0.0215179
0.0215176
0.0217087
0.0217084
0.00220259
0.00220257
0.00221962
0.0022196
0.0215861
0.0217766
0.0217768
0.0219665
0.00222971
0.00229084
0.0022467
0.00230774
0.0222191
0.0219445
0.0224052
0.0221331
0.00240087
0.00246722
0.00241786
0.00248396
0.0215482
0.0218261
0.021751
0.0220269
0.002432
0.00236501
0.00244994
0.00238326
0.0213752
0.0211824
0.0215801
0.0213881
0.00225512
0.00219373
0.00227334
0.00221209
0.0211126
0.0211123
0.0213187
0.0213183
0.00216643
0.00216641
0.00218486
0.00218484
0.0211814
0.0213736
0.0213872
0.0215785
0.00219368
0.00225504
0.00221203
0.00227326
0.0218239
0.0215455
0.0220247
0.0217484
0.00236491
0.00243188
0.00238316
0.00244982
0.0211185
0.0213995
0.021337
0.0216164
0.00239414
0.00232643
0.00241336
0.00234601
0.0209404
0.0207456
0.0211615
0.0209677
0.00221654
0.00215479
0.00223618
0.00217464
0.0206752
0.0206748
0.0208976
0.0208973
0.0021273
0.00212728
0.00214725
0.00214723
0.0207446
0.0209388
0.0209667
0.0211599
0.00215474
0.00221646
0.00217458
0.0022361
0.0213973
0.0211157
0.0216142
0.0213343
0.00232632
0.00239401
0.00234591
0.00241324
0.0206546
0.0209382
0.0208908
0.021173
0.00235348
0.00228497
0.00237414
0.00230603
0.0204708
0.0202737
0.0207098
0.0205138
0.00217487
0.00211261
0.0021961
0.00213413
0.0202023
0.020202
0.020443
0.0204426
0.00208484
0.00208482
0.0021065
0.00210648
0.0202727
0.0204692
0.0205128
0.0207082
0.00211255
0.00217479
0.00213407
0.00219602
0.020936
0.0206519
0.0211707
0.0208881
0.00228486
0.00235335
0.00230593
0.00237402
0.0201508
0.020437
0.0204078
0.0206925
0.00230952
0.00224024
0.00233192
0.002263
0.0199618
0.0197619
0.0202212
0.0200227
0.00212961
0.00206663
0.00215272
0.00209013
0.0196895
0.0196891
0.0199508
0.0199505
0.0020385
0.00203848
0.00206219
0.00206217
0.0197609
0.0199601
0.0200217
0.0202195
0.00206657
0.00212952
0.00209007
0.00215263
0.0204348
0.0201481
0.0206902
0.0204052
0.00224013
0.0023094
0.00226289
0.0023318
0.0195988
0.0198882
0.019881
0.0201687
0.00226138
0.0021915
0.00228601
0.00221639
0.0194062
0.0192031
0.01969
0.0194886
0.00207982
0.00201597
0.00210535
0.00204195
0.0191298
0.0191295
0.0194155
0.0194152
0.00198747
0.00198745
0.00201363
0.00201361
0.0192021
0.0194045
0.0194875
0.0196884
0.00201592
0.00207974
0.0020419
0.00210527
0.019886
0.0195961
0.0201664
0.0198784
0.00219139
0.00226125
0.00221628
0.00228589
0.0189978
0.0192779
0.0193026
0.0195917
0.00220779
0.00213683
0.00223529
0.00216513
0.0187894
0.0185865
0.0191065
0.0189024
0.00202336
0.0019591
0.00205265
0.00198843
0.0185153
0.0185149
0.0188294
0.018829
0.00193066
0.00193064
0.00195984
0.00195982
0.0185855
0.0187878
0.0189014
0.0191048
0.00195905
0.00202328
0.00198837
0.00205256
0.0192757
0.0189952
0.0195895
0.0193
0.00213673
0.00220767
0.00216502
0.00223517
0.0184179
0.0185512
0.018697
0.0189369
0.00214573
0.0020622
0.00217864
0.00210439
0.0180823
0.0179037
0.0184484
0.0182525
0.00195445
0.00189427
0.00199101
0.0019277
0.0178446
0.0178443
0.0181858
0.0181855
0.00186774
0.00186772
0.00189987
0.00189986
0.0179028
0.0180808
0.0182515
0.0184468
0.00189421
0.00195437
0.00192765
0.00199092
0.018549
0.0184152
0.0189347
0.0186944
0.00206209
0.0021456
0.00210428
0.00217851
0.0261911
0.025471
0.0218766
0.0213954
0.0202333
0.0195909
0.0165215
0.0161075
0.0243835
0.0241406
0.0201659
0.0198537
0.0184907
0.0182422
0.01486
0.014542
0.0242753
0.0242717
0.0199875
0.0199841
0.018383
0.0183806
0.0146909
0.0146886
0.0241298
0.0243668
0.0198434
0.0201496
0.018235
0.0184792
0.0145348
0.0148483
0.0254501
0.0261673
0.0213748
0.0218534
0.0195764
0.0202171
0.0160928
0.0165054
0.0333539
0.0327301
0.0299463
0.0292544
0.025719
0.0252067
0.0231795
0.0225812
0.031878
0.0317348
0.0282872
0.0281006
0.0243681
0.0242131
0.0216164
0.0214221
0.0318562
0.0318524
0.0282305
0.0282267
0.0243186
0.0243162
0.021546
0.0215436
0.0317237
0.0318609
0.0280896
0.0282703
0.0242059
0.024357
0.0214149
0.0216051
0.0327091
0.0333302
0.0292336
0.029923
0.0251928
0.0257036
0.0225671
0.0231641
0.0393187
0.0388131
0.036468
0.0359083
0.0299974
0.0296234
0.0279755
0.0275388
0.0381291
0.0380363
0.0351495
0.0350354
0.0289627
0.0288535
0.0267999
0.0266714
0.038138
0.0381343
0.0351462
0.0351424
0.0289298
0.0289275
0.0267602
0.0267578
0.0380256
0.0381128
0.0350245
0.0351329
0.0288468
0.0289524
0.0266644
0.0267893
0.0387929
0.0392959
0.0358878
0.0364451
0.0296104
0.0299828
0.0275255
0.027961
0.0442564
0.0438392
0.0419055
0.0414471
0.0334288
0.0331446
0.0318072
0.0314819
0.0432664
0.0432013
0.0408236
0.0407456
0.0325968
0.032513
0.0308832
0.0307877
0.0432889
0.0432854
0.040839
0.0408355
0.0325725
0.0325704
0.030854
0.0308518
0.0431914
0.0432513
0.0407354
0.040808
0.0325069
0.0325873
0.0307813
0.0308733
0.0438203
0.0442349
0.0414277
0.0418837
0.0331327
0.0334153
0.0314695
0.0317936
0.0483098
0.0479569
0.0463824
0.0459995
0.0361729
0.0359567
0.0348756
0.0346274
0.0474634
0.047418
0.0454691
0.0454139
0.0354873
0.0354222
0.0341221
0.034048
0.0474976
0.0474945
0.0454965
0.0454933
0.0354736
0.0354717
0.0341025
0.0341005
0.047409
0.0474496
0.0454045
0.0454547
0.0354167
0.0354788
0.0340423
0.0341133
0.0479396
0.04829
0.0459815
0.0463622
0.0359458
0.0361606
0.0346161
0.0348632
0.0516223
0.0513191
0.0500476
0.0497209
0.0383732
0.0382112
0.0373319
0.0371444
0.0508863
0.0508575
0.0492595
0.0492223
0.0377991
0.0377488
0.0367056
0.036648
0.0509335
0.0509306
0.0492994
0.0492965
0.0377967
0.037795
0.0366972
0.0366954
0.0508493
0.0508737
0.0492138
0.0492464
0.037744
0.0377915
0.0366429
0.0366976
0.0513033
0.051604
0.0497045
0.0500289
0.0382014
0.038362
0.0371342
0.0373206
0.0543281
0.0540649
0.0530416
0.0527593
0.040143
0.0400233
0.0393047
0.039165
0.0536795
0.0536651
0.0523514
0.0523298
0.0396562
0.0396189
0.0387768
0.038733
0.0537401
0.0537376
0.0524048
0.0524022
0.0396656
0.0396641
0.03878
0.0387784
0.0536578
0.053668
0.0523221
0.0523396
0.0396145
0.0396493
0.0387284
0.0387696
0.0540503
0.0543111
0.0527442
0.0530243
0.0400144
0.0401327
0.0391558
0.0392943
0.0565373
0.0563063
0.0554866
0.0552404
0.0415696
0.0414835
0.0408933
0.0407913
0.0559591
0.0559576
0.0548749
0.0548669
0.0411527
0.0411265
0.0404434
0.0404117
0.0560332
0.0560308
0.0549419
0.0549394
0.0411733
0.0411719
0.0404582
0.0404568
0.0559509
0.0559486
0.0548599
0.0548641
0.0411224
0.0411464
0.0404075
0.0404368
0.0562928
0.0565214
0.0552265
0.0554706
0.0414753
0.04156
0.0407828
0.0408838
0.058339
0.058134
0.0574823
0.0572649
0.0427203
0.0426611
0.0421747
0.0421027
0.0578182
0.0578282
0.0569341
0.0569383
0.04236
0.0423432
0.0417877
0.0417662
0.0579051
0.0579029
0.0570142
0.057012
0.0423907
0.0423894
0.0418131
0.0418118
0.0578219
0.0578084
0.0569318
0.056924
0.0423395
0.0423541
0.0417623
0.0417816
0.0581213
0.058324
0.0572519
0.0574672
0.0426533
0.0427112
0.0420948
0.0421658
0.0598042
0.0596203
0.0591081
0.0589141
0.0436464
0.0436088
0.0432076
0.0431598
0.0593306
0.0593508
0.0586119
0.0586269
0.0433321
0.0433236
0.0428716
0.0428589
0.0594293
0.0594273
0.0587044
0.0587023
0.0433721
0.0433709
0.0429068
0.0429056
0.0593449
0.0593214
0.0586208
0.0586024
0.0433201
0.0433265
0.0428553
0.0428659
0.0596083
0.0597899
0.0589018
0.0590937
0.0436015
0.0436377
0.0431523
0.0431991
0.0609888
0.0608223
0.0604268
0.0602518
0.0443871
0.0443669
0.0440367
0.0440083
0.0605545
0.0605835
0.0599736
0.0599981
0.0441106
0.0441094
0.0437423
0.0437374
0.060664
0.0606621
0.0600774
0.0600755
0.0441591
0.044158
0.0437865
0.0437853
0.0605779
0.0605457
0.0599923
0.0599646
0.0441061
0.0441053
0.0437341
0.043737
0.0608108
0.0609751
0.0602402
0.060413
0.04436
0.0443787
0.0440012
0.0440286
0.0619372
0.061785
0.0614884
0.0613292
0.0449726
0.0449669
0.0446966
0.0446839
0.0615361
0.0615729
0.0610713
0.0611041
0.0447276
0.044733
0.0444365
0.0444386
0.0616553
0.0616534
0.0611854
0.0611835
0.0447842
0.0447831
0.044489
0.0444879
0.0615675
0.0615276
0.0610986
0.0610627
0.0447299
0.0447226
0.0444354
0.0444315
0.061774
0.0619239
0.0613181
0.0614751
0.0449602
0.0449646
0.0446772
0.0446887
0.0626851
0.0625449
0.0623324
0.0621864
0.0454271
0.0454333
0.0452139
0.0452143
0.062312
0.0623557
0.0619458
0.061986
0.0452086
0.04522
0.0449827
0.0449911
0.06244
0.0624382
0.0620692
0.0620674
0.0452726
0.0452716
0.0450429
0.0450419
0.0623505
0.0623038
0.0619807
0.0619376
0.0452169
0.0452037
0.044988
0.0449778
0.0625342
0.0626721
0.0621756
0.0623195
0.0454269
0.0454194
0.0452078
0.0452063
0.0632607
0.0631308
0.0629911
0.0628562
0.04577
0.045786
0.0456104
0.0456218
0.0629118
0.0629618
0.0626305
0.0626772
0.0455738
0.0455905
0.0454037
0.0454177
0.063048
0.0630463
0.0627624
0.0627606
0.0456446
0.0456436
0.045471
0.04547
0.0629568
0.0629038
0.0626721
0.0626224
0.0455875
0.045569
0.0454147
0.0453989
0.0631203
0.063248
0.0628456
0.0629784
0.0457797
0.0457625
0.0456154
0.0456032
0.063688
0.0635663
0.0634898
0.063364
0.0460164
0.0460405
0.0459035
0.0459237
0.0633591
0.0634152
0.0631516
0.0632042
0.045839
0.0458606
0.0457171
0.0457362
0.0635032
0.0635016
0.0632913
0.0632896
0.0459162
0.0459152
0.045791
0.04579
0.0634103
0.0633513
0.0631993
0.0631437
0.0458577
0.0458344
0.0457333
0.0457124
0.063556
0.0636754
0.0633536
0.0634774
0.0460343
0.0460089
0.0459174
0.0458963
0.0639864
0.0638714
0.0638502
0.0637322
0.046179
0.0462093
0.0461063
0.0461336
0.0636742
0.0637346
0.0635304
0.0635883
0.0460169
0.0460429
0.0459373
0.0459611
0.0638241
0.0638225
0.0636773
0.0636756
0.0461001
0.0460991
0.0460173
0.0460164
0.0637298
0.0636666
0.0635834
0.0635227
0.0460402
0.0460125
0.0459584
0.0459329
0.0638613
0.063974
0.063722
0.063838
0.0462035
0.0461718
0.0461275
0.0460992
0.0641716
0.0640625
0.0640916
0.0639797
0.0462695
0.0463048
0.0462332
0.046266
0.0638739
0.0639382
0.0637863
0.0638478
0.0461198
0.0461485
0.0460765
0.0461033
0.0640288
0.0640272
0.0639376
0.063936
0.0462059
0.046205
0.0461603
0.0461594
0.0639334
0.0638662
0.0638429
0.0637787
0.0461456
0.0461152
0.0461005
0.0460721
0.0640522
0.0641588
0.0639695
0.0640794
0.0462983
0.0462616
0.0462602
0.0462266
0.0642487
0.0641447
0.0642216
0.0641149
0.046285
0.0463254
0.046285
0.0463226
0.0639643
0.0640324
0.0639302
0.0639962
0.046149
0.0461817
0.046142
0.0461729
0.0641245
0.0641228
0.0640876
0.064086
0.0462408
0.0462397
0.0462313
0.0462303
0.0640275
0.0639564
0.0639913
0.0639224
0.0461787
0.0461442
0.04617
0.0461373
0.0641343
0.0642359
0.0641045
0.064209
0.0463199
0.0462782
0.0463163
0.0462772
0.0642292
0.0641299
0.0642483
0.064147
0.0462399
0.0462844
0.0462685
0.0463114
0.0639563
0.0640281
0.0639703
0.0640401
0.0461133
0.0461492
0.046138
0.0461722
0.0641215
0.0641198
0.0641327
0.064131
0.0462097
0.0462087
0.046232
0.046231
0.0640231
0.0639483
0.0640351
0.0639623
0.0461462
0.0461083
0.0461693
0.0461332
0.0641191
0.0642158
0.0641364
0.0642355
0.0462768
0.0462308
0.046305
0.0462617
0.0641172
0.0640224
0.0641828
0.0640852
0.0461337
0.0461819
0.0461933
0.0462393
0.0638567
0.0639322
0.0639157
0.0639892
0.0460172
0.0460562
0.0460717
0.0461091
0.0640271
0.0640254
0.0640833
0.0640815
0.046118
0.046117
0.0461702
0.0461691
0.0639272
0.0638485
0.0639842
0.0639076
0.0460531
0.046012
0.046106
0.0460666
0.0640115
0.0641038
0.0640744
0.0641696
0.0461756
0.0461259
0.0462323
0.0461844
0.0639239
0.0638326
0.0640285
0.063936
0.0459745
0.0460254
0.0460596
0.0461095
0.0636715
0.0637503
0.0637727
0.0638497
0.0458643
0.0459059
0.0459468
0.0459871
0.0638466
0.0638449
0.0639452
0.0639435
0.045969
0.045968
0.0460494
0.0460484
0.0637454
0.0636636
0.0638447
0.0637646
0.0459029
0.0458593
0.0459839
0.0459416
0.063822
0.0639105
0.0639251
0.0640153
0.0460177
0.0459652
0.0461024
0.046052
0.0636467
0.0635591
0.063794
0.063704
0.0457589
0.0458123
0.045873
0.0459246
0.0634043
0.0634863
0.0635461
0.0636263
0.0456562
0.0457005
0.0457661
0.0458089
0.0635841
0.0635825
0.0637233
0.0637216
0.045765
0.0457641
0.0458727
0.0458717
0.0634817
0.0633969
0.0636216
0.0635385
0.0456979
0.0456521
0.0458061
0.0457616
0.0635493
0.0636345
0.0636938
0.0637815
0.0458078
0.0457528
0.0459184
0.0458646
0.0632944
0.0632101
0.0634776
0.0633922
0.0454924
0.0455488
0.0456305
0.0456858
0.0630587
0.0631435
0.0632393
0.0633226
0.0453955
0.0454421
0.0455314
0.0455769
0.0632426
0.063241
0.0634209
0.0634194
0.0455079
0.045507
0.0456419
0.0456411
0.0631389
0.0630515
0.063318
0.0632321
0.0454396
0.0453915
0.0455743
0.0455275
0.0632004
0.0632821
0.0633826
0.0634659
0.0455429
0.0454855
0.0456809
0.0456254
0.0628642
0.0627829
0.0630875
0.0630042
0.0451746
0.0452329
0.0453393
0.0453963
0.0626363
0.0627236
0.0628552
0.0629411
0.0450832
0.0451318
0.0452448
0.0452924
0.0628238
0.0628222
0.0630406
0.0630391
0.0451986
0.0451977
0.0453587
0.0453578
0.0627189
0.0626289
0.0629364
0.0628479
0.0451292
0.0450791
0.0452899
0.0452409
0.0627731
0.062852
0.0629945
0.0630756
0.0452282
0.0451685
0.0453909
0.0453324
0.0623607
0.0622824
0.0626195
0.0625401
0.0448072
0.0448679
0.0449959
0.0450557
0.062138
0.0622272
0.0623948
0.0624829
0.0447195
0.0447697
0.044907
0.0449563
0.0623285
0.0623269
0.0625836
0.062582
0.0448376
0.0448367
0.0450236
0.0450226
0.0622224
0.0621303
0.0624782
0.0623872
0.0447669
0.044715
0.0449536
0.0449027
0.062272
0.0623476
0.0625299
0.0626072
0.0448611
0.0447992
0.0450501
0.0449901
0.0617797
0.061704
0.0620785
0.062001
0.0443871
0.0444497
0.0446032
0.0446645
0.0615628
0.061654
0.0618582
0.0619482
0.0443032
0.0443555
0.044517
0.0445681
0.0617563
0.0617547
0.0620499
0.0620482
0.0444245
0.0444235
0.0446365
0.0446356
0.0616491
0.0615551
0.0619434
0.0618505
0.0443527
0.0442988
0.0445654
0.0445125
0.0616937
0.0617668
0.0619906
0.0620656
0.0444443
0.0443799
0.044658
0.0445949
0.0611227
0.06105
0.0614587
0.0613847
0.0439161
0.043981
0.0441567
0.0442206
0.0609102
0.0610031
0.0612444
0.0613363
0.0438345
0.0438886
0.0440745
0.0441276
0.0611065
0.0611048
0.061439
0.0614374
0.0439587
0.0439578
0.0441972
0.0441962
0.0609982
0.0609024
0.0613314
0.0612367
0.0438858
0.0438302
0.0441249
0.0440702
0.0610396
0.0611097
0.0613744
0.0614461
0.0439748
0.0439088
0.0442152
0.0441506
0.0603879
0.0603174
0.0607634
0.0606916
0.0433938
0.0434598
0.0436605
0.0437259
0.0601791
0.0602735
0.0605526
0.0606461
0.0433131
0.0433685
0.0435795
0.0436342
0.0603778
0.0603761
0.0607499
0.0607482
0.0434397
0.0434387
0.0437049
0.0437039
0.0602686
0.0601713
0.0606413
0.0605449
0.0433658
0.0433087
0.0436315
0.0435751
0.060307
0.0603747
0.0606812
0.0607506
0.0434538
0.043386
0.0437198
0.0436531
0.0595745
0.0595063
0.0599892
0.0599199
0.0428189
0.042886
0.043112
0.0431786
0.0593686
0.0594637
0.059782
0.0598767
0.0427384
0.0427945
0.0430316
0.0430874
0.0595685
0.0595669
0.0599812
0.0599796
0.0428664
0.0428654
0.0431588
0.0431579
0.0594588
0.0593607
0.0598719
0.0597742
0.0427917
0.0427338
0.0430846
0.0430271
0.0594958
0.0595612
0.0599094
0.0599763
0.0428798
0.0428111
0.0431724
0.0431046
0.0586805
0.058614
0.0591361
0.0590688
0.0421902
0.0422581
0.0425104
0.042578
0.0584756
0.0585707
0.0589308
0.0590259
0.0421086
0.0421648
0.0424297
0.0424858
0.0586756
0.058674
0.0591307
0.059129
0.0422371
0.0422361
0.0425578
0.0425569
0.0585657
0.0584677
0.0590209
0.0589229
0.0421619
0.042104
0.0424829
0.0424251
0.0586034
0.0586671
0.0590582
0.059123
0.0422518
0.0421823
0.0425717
0.0425029
0.0577012
0.0576356
0.0582001
0.0581341
0.0415054
0.0415733
0.0418541
0.041922
0.0574955
0.0575897
0.057995
0.0580896
0.0414211
0.0414767
0.0417714
0.0418273
0.0576944
0.0576927
0.0581943
0.0581926
0.0415492
0.0415482
0.0418996
0.0418987
0.0575847
0.0574875
0.0580846
0.057987
0.0414738
0.0414164
0.0418244
0.0417667
0.0576249
0.0576878
0.0581234
0.058187
0.041567
0.0414975
0.0419157
0.0418465
0.0566309
0.0565657
0.0571761
0.0571108
0.0407616
0.040829
0.0411402
0.0412079
0.056422
0.0565145
0.0569691
0.0570624
0.0406723
0.0407268
0.0410537
0.0411088
0.0566187
0.056617
0.0571667
0.057165
0.0407992
0.0407982
0.0411812
0.0411802
0.0565094
0.0564139
0.0570573
0.056961
0.0407238
0.0406676
0.0411059
0.041049
0.056555
0.0566175
0.0571001
0.057163
0.0408226
0.0407536
0.0412016
0.0411326
0.0554618
0.0553958
0.0560575
0.055992
0.0399541
0.0400198
0.0403652
0.0404319
0.0552472
0.0553371
0.0558461
0.0559372
0.0398574
0.0399101
0.0402726
0.0403262
0.0554405
0.0554388
0.0560409
0.0560392
0.0399823
0.0399813
0.0403985
0.0403975
0.055332
0.055239
0.0559321
0.055838
0.0399071
0.0398526
0.0403232
0.0402679
0.0553851
0.0554485
0.0559813
0.0560445
0.0400134
0.0399462
0.0404255
0.0403576
0.0541848
0.0541166
0.0548358
0.0547688
0.0390771