/*--------------------------------*- C++ -*----------------------------------*\
  =========                 |
  \\      /  F ield         | OpenFOAM: The Open Source CFD Toolbox
   \\    /   O peration     | Website:  https://openfoam.org
    \\  /    A nd           | Version:  9
     \\/     M anipulation  |
\*---------------------------------------------------------------------------*/
FoamFile
{
    format      ascii;
    class       volScalarField;
    location    "3.1";
    object      p;
}
// * * * * * * * * * * * * * * * * * * * * * * * * * * * * * * * * * * * * * //

dimensions      [0 2 -2 0 0 0 0];

internalField   nonuniform List<scalar> 
36360
(
20.1989
20.0342
20.1763
20.0459
20.0529
20.1413
20.0614
20.1216
20.0909
20.1008
20.0952
20.1028
20.0997
20.0957
20.0954
20.0948
20.1017
20.1017
20.1033
20.1033
20.0958
20.0958
20.0953
20.0953
20.1008
20.0909
20.1028
20.0952
20.0957
20.0997
20.0948
20.0954
20.0342
20.1988
20.0459
20.1762
20.1412
20.053
20.1216
20.0614
20.1316
20.08
20.1602
20.0644
19.984
20.2014
20.021
20.1754
20.1043
20.0994
20.0975
20.0997
20.1181
20.0969
20.1088
20.0965
20.0978
20.0978
20.0998
20.0998
20.0941
20.0941
20.0954
20.0954
20.0994
20.1043
20.0997
20.0975
20.0969
20.1181
20.0965
20.1087
20.08
20.1316
20.0644
20.1602
20.2014
19.9841
20.1754
20.0211
20.0936
20.0935
20.1108
20.0887
19.927
20.2344
19.9529
20.2206
20.1184
20.1028
20.1115
20.1006
20.1375
20.101
20.128
20.0985
20.0958
20.0958
20.0964
20.0964
20.0933
20.0933
20.0934
20.0934
20.1028
20.1184
20.1006
20.1115
20.101
20.1375
20.0985
20.1279
20.0935
20.0937
20.0887
20.1108
20.2343
19.9271
20.2205
19.953
20.0671
20.0961
20.0792
20.0956
19.8868
20.2508
19.9052
20.244
20.13
20.1086
20.1246
20.1056
20.1534
20.1075
20.1461
20.1041
20.0969
20.0969
20.096
20.096
20.0949
20.0949
20.0938
20.0938
20.1086
20.13
20.1056
20.1246
20.1075
20.1534
20.1041
20.146
20.0961
20.0671
20.0957
20.0792
20.2508
19.8868
20.244
19.9053
20.0482
20.0944
20.0569
20.0956
19.8578
20.2588
19.8712
20.2555
20.1381
20.1148
20.1344
20.1118
20.1648
20.1144
20.1596
20.111
20.0999
20.0999
20.0983
20.0983
20.0981
20.0981
20.0963
20.0963
20.1148
20.1381
20.1117
20.1344
20.1144
20.1648
20.111
20.1596
20.0944
20.0483
20.0956
20.0569
20.2588
19.8579
20.2555
19.8713
20.0343
20.0911
20.0408
20.0928
19.8365
20.2625
19.8464
20.261
20.1434
20.1204
20.141
20.1177
20.1725
20.1206
20.169
20.1176
20.1039
20.1039
20.1019
20.1019
20.1021
20.1021
20.1001
20.1001
20.1204
20.1434
20.1177
20.141
20.1206
20.1725
20.1176
20.169
20.0911
20.0343
20.0928
20.0408
20.2625
19.8366
20.261
19.8465
20.0237
20.0875
20.0287
20.0893
19.8203
20.264
19.8279
20.2635
20.1468
20.1251
20.1453
20.1229
20.1776
20.1259
20.1753
20.1234
20.108
20.108
20.1059
20.1059
20.1062
20.1062
20.1042
20.1042
20.1251
20.1468
20.1229
20.1453
20.1259
20.1776
20.1234
20.1753
20.0875
20.0238
20.0893
20.0287
20.264
19.8204
20.2635
19.828
20.0155
20.0839
20.0193
20.0857
19.8078
20.2644
19.8137
20.2643
20.1487
20.1289
20.1479
20.1271
20.181
20.1301
20.1795
20.1281
20.1117
20.1117
20.1099
20.1099
20.11
20.11
20.1082
20.1082
20.1289
20.1487
20.1271
20.1479
20.13
20.181
20.1281
20.1795
20.0839
20.0155
20.0857
20.0194
20.2644
19.8079
20.2643
19.8138
20.0088
20.0806
20.012
20.0822
19.798
20.264
19.8027
20.2642
20.1496
20.1318
20.1493
20.1304
20.1831
20.1332
20.1822
20.1318
20.1148
20.1148
20.1133
20.1133
20.1132
20.1132
20.1117
20.1117
20.1318
20.1496
20.1304
20.1492
20.1332
20.1831
20.1318
20.1822
20.0806
20.0088
20.0822
20.012
20.2639
19.798
20.2642
19.8027
20.0034
20.0775
20.006
20.079
19.7903
20.2631
19.7938
20.2637
20.15
20.1338
20.1499
20.1329
20.1844
20.1355
20.1839
20.1345
20.1172
20.1172
20.1161
20.1161
20.1158
20.1158
20.1146
20.1146
20.1338
20.15
20.1329
20.1499
20.1356
20.1845
20.1345
20.1839
20.0776
20.0034
20.079
20.006
20.2634
19.7893
20.2637
19.7935
19.9988
20.0747
20.001
20.0761
19.7842
20.2619
19.7872
20.2625
20.1498
20.1351
20.15
20.1345
20.1849
20.137
20.1847
20.1364
20.119
20.119
20.1182
20.1182
20.1176
20.1176
20.1168
20.1168
20.1351
20.1498
20.1346
20.15
20.137
20.1849
20.1364
20.1848
20.0747
19.9988
20.0761
20.001
20.2619
19.7838
20.2628
19.7862
19.995
20.0721
19.9968
20.0734
19.7786
20.2606
19.7814
20.2612
20.1493
20.1358
20.1496
20.1355
20.1849
20.1379
20.1849
20.1375
20.1201
20.1201
20.1196
20.1196
20.1188
20.1188
20.1183
20.1183
20.1358
20.1493
20.1355
20.1496
20.1379
20.1849
20.1375
20.1849
20.0721
19.995
20.0733
19.9968
20.2607
19.7782
20.2612
19.7811
19.9915
20.0696
19.9931
20.0708
19.7745
20.2588
19.7765
20.2597
20.1484
20.1359
20.1489
20.1359
20.1843
20.138
20.1846
20.138
20.1206
20.1206
20.1204
20.1204
20.1193
20.1193
20.1192
20.1192
20.1359
20.1484
20.1359
20.1489
20.138
20.1843
20.138
20.1847
20.0695
19.9915
20.0708
19.9932
20.2586
19.7751
20.2597
19.7765
19.9884
20.0672
19.9899
20.0684
19.7707
20.257
19.7723
20.258
20.1473
20.1355
20.1479
20.1358
20.1834
20.1377
20.1839
20.1379
20.1205
20.1205
20.1206
20.1206
20.1193
20.1193
20.1194
20.1194
20.1355
20.1473
20.1357
20.1479
20.1377
20.1834
20.1379
20.1839
20.0672
19.9884
20.0684
19.9899
20.257
19.7708
20.2579
19.7729
19.9854
20.0647
19.9869
20.0659
19.7686
20.2544
19.7698
20.2557
20.1457
20.1346
20.1465
20.1351
20.1818
20.1368
20.1826
20.1373
20.1199
20.1199
20.1203
20.1203
20.1187
20.1187
20.119
20.119
20.1346
20.1457
20.1351
20.1465
20.1367
20.1818
20.1373
20.1826
20.0648
19.9855
20.066
19.9869
20.2544
19.7688
20.2557
19.7698
19.9828
20.0625
19.9841
20.0636
19.7652
20.2523
19.7668
20.2534
20.1441
20.1334
20.1449
20.134
20.1801
20.1354
20.181
20.1362
20.1189
20.1189
20.1195
20.1194
20.1175
20.1175
20.1182
20.1182
20.1333
20.144
20.134
20.1449
20.1354
20.1801
20.1361
20.181
20.0624
19.9828
20.0636
19.9841
20.2521
19.7656
20.2533
19.7671
19.9801
20.0602
19.9813
20.0614
19.7635
20.2493
19.7645
20.2507
20.1421
20.1317
20.1431
20.1326
20.1778
20.1336
20.179
20.1346
20.1174
20.1174
20.1182
20.1182
20.1159
20.1159
20.1168
20.1168
20.1317
20.142
20.1326
20.1431
20.1336
20.1779
20.1346
20.179
20.0601
19.9801
20.0613
19.9814
20.2494
19.7631
20.2508
19.7642
19.9775
20.0577
19.9788
20.059
19.7616
20.2462
19.7624
20.2478
20.1398
20.1295
20.141
20.1307
20.1752
20.1314
20.1766
20.1325
20.1154
20.1154
20.1164
20.1164
20.1139
20.1139
20.1149
20.1149
20.1295
20.1398
20.1307
20.141
20.1313
20.1752
20.1326
20.1766
20.0577
19.9777
20.0589
19.9789
20.2462
19.7615
20.2479
19.7622
19.9751
20.0554
19.9763
20.0566
19.7596
20.243
19.7603
20.2447
20.1375
20.127
20.1387
20.1283
20.1723
20.1287
20.1739
20.1301
20.1131
20.1131
20.1143
20.1143
20.1114
20.1114
20.1127
20.1127
20.127
20.1375
20.1283
20.1387
20.1287
20.1724
20.1301
20.1738
20.0555
19.9752
20.0566
19.9764
20.2432
19.7591
20.2446
19.7605
19.9726
20.0532
19.9738
20.0543
19.7576
20.2397
19.7589
20.2412
20.135
20.1243
20.1363
20.1257
20.1691
20.1257
20.1707
20.1272
20.1106
20.1106
20.1119
20.1119
20.1085
20.1085
20.11
20.11
20.1243
20.135
20.1257
20.1363
20.1257
20.1691
20.1272
20.1708
20.0531
19.9727
20.0542
19.9739
20.2396
19.7578
20.2413
19.7587
19.9705
20.0507
19.9716
20.0519
19.7564
20.2359
19.7572
20.2377
20.1324
20.1215
20.1337
20.1229
20.1656
20.1224
20.1674
20.124
20.1078
20.1078
20.1092
20.1092
20.1053
20.1053
20.1069
20.1069
20.1215
20.1325
20.1229
20.1338
20.1224
20.1657
20.1241
20.1675
20.0509
19.9704
20.052
19.9715
20.2361
19.7558
20.238
19.7565
19.9679
20.0487
19.9692
20.0497
19.7547
20.2322
19.7554
20.2341
20.1299
20.1185
20.1312
20.12
20.162
20.1189
20.1639
20.1206
20.1049
20.1049
20.1064
20.1064
20.1019
20.1019
20.1036
20.1036
20.1185
20.1299
20.12
20.1312
20.1189
20.162
20.1206
20.1639
20.0487
19.9682
20.0498
19.9694
20.2321
19.7548
20.2341
19.7553
19.9662
20.0465
19.9671
20.0476
19.7533
20.2284
19.754
20.2303
20.1274
20.1155
20.1287
20.117
20.1583
20.1152
20.1602
20.117
20.1019
20.1019
20.1034
20.1034
20.0983
20.0983
20.1001
20.1001
20.1155
20.1274
20.117
20.1286
20.1152
20.1583
20.117
20.1602
20.0465
19.9661
20.0476
19.9671
20.2282
19.7541
20.2301
19.7544
19.9644
20.0447
19.9652
20.0456
19.7518
20.2247
19.7524
20.2266
20.1252
20.1126
20.1263
20.1141
20.1546
20.1114
20.1565
20.1133
20.0989
20.0989
20.1004
20.1004
20.0945
20.0945
20.0964
20.0964
20.1125
20.1251
20.114
20.1262
20.1114
20.1545
20.1133
20.1563
20.0447
19.9645
20.0455
19.9653
20.2244
19.753
20.2262
19.7537
19.9629
20.0431
19.9635
20.0439
19.7519
20.2207
19.7519
20.2226
20.1228
20.1097
20.1241
20.1111
20.1507
20.1076
20.1526
20.1095
20.0961
20.096
20.0975
20.0975
20.0907
20.0907
20.0926
20.0926
20.1097
20.1228
20.1111
20.124
20.1075
20.1506
20.1094
20.1525
20.0431
19.963
20.0439
19.9636
20.2205
19.7525
20.2225
19.7527
19.9617
20.0419
19.9622
20.0425
19.7519
20.217
19.7516
20.2189
20.1201
20.107
20.1214
20.1083
20.1468
20.1038
20.1487
20.1057
20.0934
20.0934
20.0947
20.0947
20.0871
20.0871
20.0889
20.0889
20.107
20.1201
20.1083
20.1214
20.1038
20.1467
20.1056
20.1486
20.042
19.9618
20.0425
19.9624
20.2169
19.7522
20.2188
19.7522
19.9614
20.0411
19.9615
20.0415
19.7526
20.2136
19.7522
20.2152
20.1178
20.1046
20.1189
20.1058
20.143
20.1002
20.1449
20.1019
20.091
20.091
20.0921
20.0921
20.0836
20.0836
20.0853
20.0853
20.1046
20.1179
20.1058
20.1189
20.1002
20.1431
20.1019
20.1449
20.0412
19.9614
20.0416
19.9614
20.2136
19.7527
20.2152
19.7524
19.9615
20.0409
19.9613
20.0409
19.7539
20.2105
19.7532
20.212
20.1161
20.1026
20.1169
20.1035
20.1396
20.0968
20.1413
20.0985
20.089
20.089
20.0899
20.0899
20.0804
20.0804
20.082
20.082
20.1026
20.1161
20.1035
20.1169
20.0968
20.1396
20.0985
20.1413
20.0409
19.9615
20.041
19.9613
20.2105
19.7539
20.212
19.7532
19.9623
20.0412
19.9618
20.041
19.7559
20.2077
19.7548
20.209
20.1149
20.101
20.1154
20.1017
20.1366
20.0939
20.1381
20.0953
20.0875
20.0875
20.0882
20.0882
20.0777
20.0777
20.079
20.079
20.101
20.1149
20.1017
20.1154
20.0939
20.1366
20.0953
20.1381
20.0413
19.9623
20.041
19.9618
20.2077
19.756
20.209
19.7548
19.9639
20.0423
19.9629
20.0417
19.759
20.2054
19.7573
20.2065
20.1142
20.1
20.1145
20.1004
20.134
20.0914
20.1352
20.0926
20.0866
20.0866
20.087
20.087
20.0755
20.0755
20.0765
20.0765
20.1
20.1142
20.1004
20.1145
20.0914
20.134
20.0926
20.1352
20.0423
19.9639
20.0417
19.963
20.2054
19.759
20.2065
19.7574
19.9663
20.044
19.965
20.0431
19.7631
20.2036
19.7609
20.2044
20.1142
20.0996
20.1142
20.0997
20.1318
20.0896
20.1328
20.0904
20.0864
20.0864
20.0864
20.0864
20.074
20.074
20.0746
20.0746
20.0996
20.1142
20.0997
20.1142
20.0896
20.1318
20.0904
20.1328
20.044
19.9664
20.0431
19.965
20.2036
19.7631
20.2044
19.7609
19.9697
20.0465
19.9679
20.0452
19.7683
20.2024
19.7656
20.2029
20.1147
20.0998
20.1144
20.0996
20.1303
20.0884
20.131
20.0889
20.0869
20.0869
20.0865
20.0865
20.0732
20.0732
20.0735
20.0735
20.0998
20.1147
20.0996
20.1144
20.0884
20.1303
20.0889
20.131
20.0465
19.9697
20.0452
19.9679
20.2024
19.7684
20.2029
19.7656
19.9742
20.0496
19.9718
20.048
19.7749
20.2018
19.7715
20.202
20.1157
20.1007
20.1151
20.1002
20.1293
20.0879
20.1297
20.088
20.0883
20.0883
20.0875
20.0875
20.0734
20.0734
20.0732
20.0732
20.1007
20.1157
20.1002
20.1151
20.0879
20.1293
20.088
20.1297
20.0496
19.9742
20.048
19.9718
20.2018
19.775
20.202
19.7715
19.9797
20.0534
19.9768
20.0515
19.783
20.2017
19.7788
20.2017
20.1173
20.1023
20.1165
20.1014
20.1289
20.0883
20.129
20.088
20.0904
20.0904
20.0892
20.0892
20.0746
20.0746
20.0739
20.0739
20.1023
20.1173
20.1014
20.1165
20.0883
20.1288
20.088
20.129
20.0534
19.9797
20.0515
19.9768
20.2017
19.783
20.2016
19.7788
19.9865
20.0577
19.9829
20.0555
19.7928
20.202
19.7877
20.2018
20.1193
20.1046
20.1183
20.1034
20.129
20.0896
20.1289
20.0888
20.0935
20.0935
20.0919
20.0919
20.0768
20.0768
20.0756
20.0756
20.1046
20.1193
20.1034
20.1183
20.0896
20.129
20.0888
20.1288
20.0577
19.9865
20.0555
19.9829
20.202
19.7928
20.2018
19.7877
19.9944
20.0625
19.9903
20.0601
19.8047
20.2025
19.7985
20.2023
20.1217
20.1076
20.1205
20.106
20.1296
20.0917
20.1292
20.0905
20.0974
20.0974
20.0953
20.0953
20.0801
20.0801
20.0783
20.0783
20.1076
20.1216
20.106
20.1205
20.0917
20.1296
20.0905
20.1292
20.0625
19.9944
20.0601
19.9903
20.2025
19.8047
20.2023
19.7985
20.0034
20.0676
19.9988
20.065
19.8192
20.2026
19.8116
20.2027
20.1242
20.1112
20.1229
20.1093
20.1304
20.0948
20.13
20.0932
20.1021
20.1021
20.0996
20.0996
20.0844
20.0844
20.0821
20.0821
20.1112
20.1242
20.1093
20.1229
20.0948
20.1304
20.0932
20.13
20.0676
20.0034
20.065
19.9988
20.2026
19.8193
20.2027
19.8116
20.0114
20.0745
20.0079
20.0706
19.8375
20.201
19.8279
20.2021
20.127
20.1155
20.1255
20.1133
20.1314
20.0989
20.1309
20.0967
20.1077
20.1077
20.1048
20.1048
20.0899
20.0899
20.087
20.087
20.1155
20.127
20.1133
20.1255
20.0989
20.1314
20.0967
20.1309
20.0745
20.0114
20.0706
20.0079
20.201
19.8375
20.2021
19.8279
20.0178
20.0823
20.0128
20.0802
19.8604
20.1957
19.8483
20.199
20.1313
20.121
20.129
20.1181
20.1331
20.1042
20.1321
20.1014
20.1142
20.1142
20.1108
20.1108
20.0964
20.0964
20.093
20.093
20.121
20.1313
20.1181
20.1289
20.1042
20.1331
20.1014
20.1321
20.0823
20.0178
20.0802
20.0128
20.1956
19.8604
20.199
19.8483
20.2929
19.9933
20.2258
20.0197
20.2671
19.9929
20.2091
20.0205
20.0475
20.087
20.0675
20.0944
20.0621
20.0943
20.0762
20.0972
20.0999
20.0999
20.1009
20.1009
20.1001
20.1001
20.0996
20.0996
20.0871
20.0476
20.0944
20.0675
20.0943
20.0622
20.0972
20.0763
19.9934
20.2928
20.0197
20.2257
19.9929
20.267
20.0206
20.2091
20.2317
20.0534
20.2527
20.0362
20.213
20.0411
20.2339
20.027
20.059
20.0821
20.0547
20.0841
20.0718
20.0912
20.0676
20.0925
20.094
20.094
20.0974
20.0974
20.097
20.097
20.0992
20.0992
20.0821
20.059
20.0841
20.0547
20.0912
20.0718
20.0925
20.0676
20.0534
20.2316
20.0362
20.2526
20.0411
20.213
20.027
20.2339
20.2148
20.0593
20.2216
20.0586
20.1908
20.0465
20.2005
20.0458
20.0663
20.0831
20.0631
20.0822
20.0814
20.0937
20.0768
20.0921
20.091
20.091
20.0919
20.0919
20.0948
20.0948
20.0955
20.0955
20.0831
20.0663
20.0822
20.0631
20.0937
20.0814
20.0921
20.0768
20.0593
20.2147
20.0587
20.2216
20.0466
20.1907
20.0458
20.2005
20.2054
20.0557
20.2095
20.058
20.1762
20.043
20.1828
20.0453
20.0697
20.0859
20.0684
20.0844
20.0879
20.0979
20.0851
20.0957
20.0914
20.0914
20.0909
20.0909
20.0956
20.0956
20.0949
20.0949
20.0859
20.0697
20.0844
20.0684
20.0979
20.0879
20.0957
20.0851
20.0557
20.2054
20.058
20.2095
20.043
20.1762
20.0453
20.1828
20.1994
20.0502
20.2021
20.053
20.1663
20.0371
20.1708
20.0401
20.0706
20.0889
20.0704
20.0874
20.0915
20.1023
20.09
20.1002
20.094
20.094
20.0925
20.0925
20.0985
20.0985
20.0969
20.0969
20.0889
20.0706
20.0874
20.0704
20.1023
20.0915
20.1002
20.09
20.0502
20.1994
20.053
20.2021
20.0371
20.1663
20.0402
20.1708
20.1951
20.0446
20.1971
20.0473
20.1591
20.0312
20.1624
20.034
20.0702
20.0916
20.0705
20.0904
20.0928
20.1063
20.0924
20.1044
20.0973
20.0973
20.0956
20.0956
20.1022
20.1022
20.1003
20.1003
20.0916
20.0702
20.0904
20.0705
20.1063
20.0928
20.1044
20.0924
20.0446
20.1951
20.0473
20.1971
20.0312
20.1591
20.034
20.1624
20.1919
20.0395
20.1934
20.042
20.1537
20.0257
20.1563
20.0284
20.0692
20.0938
20.0697
20.0928
20.0929
20.1097
20.0929
20.1081
20.1007
20.1007
20.099
20.099
20.106
20.106
20.1041
20.1041
20.0938
20.0692
20.0928
20.0697
20.1097
20.0929
20.1081
20.0929
20.0395
20.1918
20.042
20.1934
20.0257
20.1537
20.0284
20.1563
20.1892
20.0348
20.1905
20.0371
20.1495
20.0208
20.1515
20.0232
20.0678
20.0955
20.0685
20.0947
20.0923
20.1125
20.0926
20.1112
20.1037
20.1037
20.1022
20.1022
20.1095
20.1095
20.1078
20.1078
20.0955
20.0678
20.0947
20.0685
20.1125
20.0923
20.1112
20.0927
20.0349
20.1892
20.0371
20.1905
20.0208
20.1495
20.0232
20.1515
20.187
20.0307
20.1881
20.0327
20.1461
20.0164
20.1477
20.0185
20.0664
20.0966
20.0671
20.0961
20.0915
20.1146
20.0919
20.1136
20.1062
20.1062
20.105
20.105
20.1125
20.1125
20.1111
20.1111
20.0966
20.0664
20.0961
20.0671
20.1146
20.0915
20.1136
20.0919
20.0307
20.187
20.0327
20.1881
20.0164
20.1461
20.0185
20.1477
20.185
20.0271
20.186
20.0288
20.143
20.0126
20.1445
20.0144
20.0648
20.0973
20.0656
20.097
20.0904
20.1161
20.091
20.1154
20.1081
20.1081
20.1072
20.1072
20.1147
20.1147
20.1137
20.1137
20.0973
20.0648
20.097
20.0656
20.1161
20.0904
20.1154
20.091
20.0271
20.1851
20.0288
20.186
20.0125
20.1431
20.0144
20.1445
20.1832
20.0237
20.1841
20.0253
20.1403
20.0091
20.1416
20.0108
20.0633
20.0976
20.0641
20.0975
20.0893
20.117
20.0899
20.1167
20.1094
20.1094
20.1088
20.1088
20.1163
20.1163
20.1156
20.1156
20.0976
20.0632
20.0975
20.064
20.117
20.0892
20.1166
20.0899
20.0237
20.1832
20.0253
20.1841
20.009
20.1405
20.0107
20.1418
20.1814
20.0207
20.1823
20.0222
20.1379
20.006
20.139
20.0076
20.0616
20.0975
20.0625
20.0976
20.0879
20.1174
20.0886
20.1173
20.1102
20.1102
20.1099
20.1099
20.1173
20.1173
20.1169
20.1169
20.0975
20.0616
20.0976
20.0624
20.1174
20.0879
20.1173
20.0886
20.0207
20.1815
20.0222
20.1824
20.0058
20.1381
20.0074
20.1393
20.1797
20.0178
20.1806
20.0192
20.1357
20.003
20.1368
20.0045
20.0599
20.0971
20.0608
20.0974
20.0864
20.1173
20.0872
20.1174
20.1104
20.1104
20.1104
20.1103
20.1178
20.1177
20.1176
20.1176
20.0971
20.0599
20.0974
20.0608
20.1173
20.0864
20.1174
20.0872
20.0178
20.1798
20.0192
20.1806
20.0029
20.1358
20.0043
20.137
20.178
20.0151
20.1789
20.0164
20.1337
20.0002
20.1347
20.0015
20.0581
20.0963
20.059
20.0967
20.0848
20.1167
20.0856
20.1171
20.1102
20.1102
20.1104
20.1104
20.1176
20.1176
20.1178
20.1178
20.0963
20.0582
20.0967
20.059
20.1167
20.0848
20.1171
20.0856
20.0151
20.178
20.0164
20.1789
20.0002
20.1337
20.0015
20.1348
20.1762
20.0125
20.1771
20.0138
20.1315
19.9975
20.1326
19.9988
20.0563
20.0953
20.0572
20.0958
20.083
20.1157
20.0839
20.1163
20.1096
20.1096
20.1099
20.1099
20.1171
20.117
20.1174
20.1174
20.0953
20.0563
20.0958
20.0573
20.1157
20.083
20.1163
20.0839
20.0125
20.1762
20.0138
20.1772
19.9976
20.1316
19.9988
20.1327
20.1744
20.0101
20.1753
20.0113
20.1295
19.995
20.1305
19.9962
20.0545
20.094
20.0554
20.0947
20.0811
20.1144
20.0821
20.1151
20.1087
20.1087
20.1092
20.1092
20.1161
20.1161
20.1166
20.1166
20.094
20.0545
20.0947
20.0554
20.1143
20.0811
20.1151
20.0821
20.0101
20.1743
20.0113
20.1753
19.9949
20.1297
19.9962
20.1306
20.1725
20.0077
20.1734
20.0089
20.1276
19.9924
20.1285
19.9937
20.0526
20.0925
20.0536
20.0933
20.0791
20.1127
20.0801
20.1136
20.1074
20.1074
20.1081
20.1081
20.1147
20.1147
20.1154
20.1154
20.0926
20.0526
20.0933
20.0536
20.1127
20.079
20.1135
20.08
20.0078
20.1725
20.009
20.1734
19.9923
20.1278
19.9936
20.1288
20.1707
20.0054
20.1716
20.0065
20.1257
19.9899
20.1267
19.9911
20.0507
20.091
20.0516
20.0918
20.0769
20.1111
20.078
20.1119
20.106
20.106
20.1067
20.1067
20.113
20.113
20.1139
20.1139
20.091
20.0507
20.0918
20.0517
20.111
20.0769
20.1119
20.0779
20.0055
20.1706
20.0066
20.1715
19.9898
20.1258
19.991
20.1269
20.1691
20.003
20.1699
20.0041
20.1237
19.9875
20.1248
19.9887
20.0487
20.0893
20.0497
20.0901
20.0747
20.1093
20.0758
20.1102
20.1044
20.1044
20.1052
20.1052
20.1111
20.1111
20.1121
20.1121
20.0893
20.0488
20.0901
20.0497
20.1093
20.0748
20.1102
20.0758
20.0031
20.1689
20.0042
20.1698
19.9877
20.1236
19.9888
20.1247
20.167
20.0012
20.1681
20.002
20.1215
19.9855
20.1226
19.9864
20.047
20.0875
20.0478
20.0884
20.0726
20.1074
20.0736
20.1084
20.1026
20.1026
20.1035
20.1035
20.109
20.109
20.1101
20.1101
20.0875
20.047
20.0884
20.0479
20.1074
20.0726
20.1084
20.0737
20.0012
20.1669
20.0021
20.1679
19.9855
20.1215
19.9866
20.1225
20.1655
19.9993
20.1662
20.0002
20.1195
19.9835
20.1205
19.9845
20.0453
20.0859
20.0461
20.0867
20.0704
20.1052
20.0715
20.1063
20.1008
20.1008
20.1017
20.1017
20.1068
20.1068
20.1079
20.1079
20.0859
20.0453
20.0867
20.0462
20.1053
20.0704
20.1064
20.0715
19.9993
20.1654
20.0002
20.1662
19.9836
20.1194
19.9845
20.1204
20.1637
19.9979
20.1646
19.9985
20.1175
19.9818
20.1185
19.9826
20.0439
20.0844
20.0446
20.0851
20.0683
20.1031
20.0693
20.1042
20.0991
20.0991
20.1
20.1
20.1045
20.1045
20.1056
20.1057
20.0844
20.044
20.0852
20.0446
20.1031
20.0682
20.1042
20.0693
19.998
20.1635
19.9987
20.1644
19.9816
20.1178
19.9826
20.1185
20.1627
19.9966
20.1632
19.9971
20.1162
19.9799
20.1169
19.9808
20.0426
20.083
20.0432
20.0837
20.066
20.101
20.0671
20.102
20.0975
20.0975
20.0983
20.0983
20.1023
20.1023
20.1034
20.1034
20.083
20.0427
20.0837
20.0433
20.101
20.066
20.102
20.0671
19.9967
20.1625
19.9973
20.163
19.9801
20.1161
19.9807
20.117
20.1612
19.996
20.162
19.9962
20.1146
19.9789
20.1154
19.9794
20.0419
20.0819
20.0422
20.0824
20.0638
20.099
20.0649
20.1
20.0962
20.0962
20.0968
20.0968
20.1003
20.1002
20.1013
20.1013
20.082
20.042
20.0825
20.0423
20.099
20.0637
20.1
20.0649
19.9961
20.1611
19.9963
20.1618
19.9788
20.1148
19.9794
20.1154
20.161
19.9954
20.161
19.9956
20.1139
19.9779
20.1142
19.9783
20.0419
20.0811
20.0418
20.0815
20.0617
20.0973
20.0625
20.0981
20.095
20.095
20.0956
20.0956
20.0984
20.0984
20.0993
20.0993
20.0811
20.042
20.0815
20.0419
20.0973
20.0619
20.0981
20.0626
19.9955
20.1608
19.9957
20.1609
19.9783
20.1134
19.9785
20.1141
20.1604
19.9955
20.1607
19.9954
20.1129
19.9777
20.1134
19.9777
20.0414
20.0806
20.0415
20.0808
20.0625
20.096
20.0621
20.0966
20.0942
20.0942
20.0946
20.0946
20.0967
20.0967
20.0975
20.0975
20.0806
20.0415
20.0808
20.0416
20.096
20.0625
20.0966
20.0622
19.9956
20.1603
19.9955
20.1605
19.9778
20.113
19.978
20.1132
20.1607
19.9961
20.1604
19.9958
20.1128
19.978
20.1128
19.9777
20.0419
20.0805
20.0416
20.0805
20.0628
20.095
20.0626
20.0954
20.0938
20.0938
20.0939
20.0939
20.0954
20.0954
20.096
20.096
20.0805
20.0419
20.0805
20.0416
20.095
20.0629
20.0954
20.0627
19.9962
20.1606
19.9958
20.1604
19.9781
20.1127
19.9778
20.1129
20.1612
19.9977
20.1609
19.9967
20.1128
19.9791
20.1128
19.9784
20.043
20.0809
20.0423
20.0806
20.0635
20.0944
20.0631
20.0946
20.0938
20.0938
20.0937
20.0937
20.0945
20.0945
20.0949
20.0949
20.0809
20.043
20.0807
20.0424
20.0944
20.0635
20.0946
20.0631
19.9977
20.1612
19.9968
20.1608
19.9791
20.1129
19.9785
20.1127
20.1624
19.9998
20.1617
19.9986
20.1136
19.9807
20.1131
19.9798
20.0446
20.0819
20.0437
20.0814
20.0645
20.0944
20.0639
20.0943
20.0944
20.0944
20.0941
20.0941
20.0943
20.0943
20.0943
20.0943
20.0819
20.0447
20.0814
20.0437
20.0944
20.0645
20.0943
20.0639
19.9998
20.1623
19.9986
20.1617
19.9807
20.1136
19.9798
20.1132
20.1641
20.0028
20.1632
20.0012
20.1151
19.9828
20.1143
19.9816
20.0469
20.0834
20.0457
20.0826
20.066
20.0949
20.0652
20.0946
20.0956
20.0956
20.0949
20.0949
20.0946
20.0946
20.0943
20.0943
20.0835
20.0469
20.0826
20.0457
20.0949
20.066
20.0946
20.0652
20.0028
20.164
20.0012
20.1631
19.9828
20.115
19.9817
20.1143
20.1663
20.0072
20.1651
20.0048
20.1172
19.9851
20.116
19.9839
20.0498
20.0855
20.0483
20.0844
20.0681
20.096
20.067
20.0954
20.0973
20.0973
20.0964
20.0964
20.0955
20.0955
20.095
20.095
20.0855
20.0499
20.0844
20.0483
20.096
20.0681
20.0954
20.067
20.0073
20.1663
20.0048
20.1651
19.9851
20.1171
19.984
20.116
20.169
20.0101
20.1676
20.0086
20.12
19.9897
20.1185
19.9873
20.0532
20.0882
20.0515
20.0868
20.0708
20.0977
20.0694
20.0968
20.0997
20.0997
20.0984
20.0984
20.0971
20.0971
20.0962
20.0962
20.0882
20.0532
20.0868
20.0515
20.0977
20.0708
20.0968
20.0694
20.0101
20.169
20.0086
20.1676
19.9897
20.1199
19.9873
20.1185
20.1722
20.014
20.1706
20.0119
20.1234
19.9946
20.1216
19.9921
20.0571
20.0914
20.0551
20.0898
20.0739
20.1
20.0723
20.0987
20.1026
20.1026
20.1011
20.1011
20.0994
20.0994
20.0982
20.0982
20.0914
20.0571
20.0898
20.0551
20.0999
20.0739
20.0987
20.0723
20.014
20.1721
20.0119
20.1705
19.9946
20.1234
19.9921
20.1216
20.1756
20.0186
20.1739
20.0162
20.1275
19.9999
20.1254
19.9971
20.0614
20.0951
20.0592
20.0932
20.0776
20.1028
20.0757
20.1013
20.106
20.106
20.1042
20.1042
20.1024
20.1024
20.1008
20.1008
20.0951
20.0614
20.0932
20.0592
20.1028
20.0776
20.1013
20.0757
20.0186
20.1756
20.0162
20.1739
19.9999
20.1275
19.9971
20.1254
20.1791
20.0238
20.1774
20.0211
20.1321
20.0056
20.1298
20.0027
20.0661
20.0991
20.0637
20.0971
20.0816
20.1061
20.0795
20.1044
20.1099
20.1099
20.1079
20.1079
20.106
20.106
20.1041
20.1041
20.0991
20.0661
20.0971
20.0637
20.1061
20.0816
20.1044
20.0795
20.0238
20.1791
20.0211
20.1774
20.0056
20.1321
20.0027
20.1297
20.182
20.0296
20.1807
20.0266
20.1369
20.012
20.1345
20.0087
20.0712
20.1035
20.0686
20.1013
20.0859
20.1099
20.0837
20.108
20.1143
20.1143
20.112
20.112
20.1102
20.1102
20.108
20.108
20.1035
20.0712
20.1013
20.0686
20.1099
20.0859
20.108
20.0837
20.0296
20.1819
20.0266
20.1806
20.012
20.1369
20.0087
20.1345
20.1831
20.0368
20.1829
20.0329
20.1411
20.0192
20.1392
20.0154
20.0766
20.108
20.0739
20.1057
20.0904
20.114
20.0882
20.1119
20.119
20.119
20.1166
20.1166
20.115
20.115
20.1125
20.1125
20.108
20.0766
20.1057
20.0739
20.114
20.0904
20.1119
20.0882
20.0368
20.1831
20.0329
20.1829
20.0192
20.1411
20.0154
20.1391
20.1764
20.05
20.1816
20.0419
20.1403
20.0306
20.142
20.0238
20.0824
20.1127
20.0794
20.1103
20.0952
20.1185
20.0927
20.1162
20.1243
20.1243
20.1216
20.1216
20.1204
20.1204
20.1176
20.1176
20.1127
20.0824
20.1103
20.0794
20.1185
20.0952
20.1162
20.0927
20.05
20.1764
20.0419
20.1816
20.0306
20.1403
20.0238
20.142
20.1916
20.0439
20.1703
20.0595
20.1542
20.0282
20.1374
20.0386
20.0839
20.1183
20.0851
20.1153
20.0982
20.1241
20.0977
20.1212
20.1302
20.1302
20.1272
20.1272
20.1265
20.1265
20.1234
20.1234
20.1183
20.0839
20.1153
20.0851
20.1241
20.0982
20.1212
20.0977
20.0439
20.1915
20.0595
20.1703
20.0282
20.1541
20.0386
20.1373
20.3166
20.0032
20.2445
20.0233
20.3066
19.9983
20.2364
20.0213
20.0296
20.0735
20.055
20.0864
20.0364
20.0795
20.0599
20.09
20.0952
20.0952
20.0999
20.0999
20.098
20.098
20.1007
20.1007
20.0735
20.0296
20.0864
20.0551
20.0795
20.0365
20.09
20.06
20.0032
20.3165
20.0233
20.2444
19.9984
20.3064
20.0213
20.2363
20.2305
20.0857
20.2582
20.0618
20.2327
20.0708
20.2568
20.05
20.051
20.0681
20.0434
20.0705
20.0529
20.074
20.0468
20.0764
20.0833
20.0833
20.0891
20.0891
20.0888
20.0889
20.0935
20.0935
20.0681
20.051
20.0705
20.0434
20.074
20.0529
20.0764
20.0468
20.0857
20.2304
20.0618
20.2581
20.0708
20.2326
20.05
20.2568
20.2118
20.0961
20.2188
20.0938
20.2156
20.0793
20.2222
20.0777
20.061
20.0686
20.0569
20.068
20.0611
20.0745
20.0577
20.0739
20.0778
20.0778
20.0797
20.0797
20.0845
20.0845
20.086
20.086
20.0686
20.061
20.068
20.0569
20.0745
20.0611
20.0739
20.0577
20.0961
20.2117
20.0938
20.2188
20.0793
20.2156
20.0777
20.2222
20.2034
20.0952
20.207
20.0962
20.2075
20.0773
20.211
20.0788
20.0645
20.0702
20.0634
20.0694
20.064
20.0764
20.063
20.0754
20.077
20.077
20.077
20.077
20.0844
20.0844
20.0841
20.0841
20.0702
20.0645
20.0694
20.0634
20.0764
20.0641
20.0754
20.0631
20.0952
20.2034
20.0962
20.2069
20.0773
20.2074
20.0788
20.2109
20.1984
20.0921
20.2007
20.0937
20.2024
20.0731
20.2047
20.0753
20.0649
20.0717
20.0649
20.0709
20.0643
20.0783
20.0644
20.0774
20.0784
20.0784
20.0776
20.0776
20.0863
20.0863
20.0852
20.0852
20.0717
20.0649
20.071
20.065
20.0783
20.0643
20.0774
20.0644
20.0921
20.1984
20.0937
20.2006
20.0731
20.2024
20.0753
20.2047
20.1947
20.0885
20.1965
20.0903
20.1988
20.0687
20.2005
20.0709
20.0642
20.0729
20.0646
20.0723
20.0634
20.08
20.064
20.0792
20.0805
20.0805
20.0795
20.0795
20.089
20.089
20.0876
20.0876
20.0729
20.0642
20.0723
20.0646
20.08
20.0635
20.0792
20.064
20.0885
20.1947
20.0903
20.1964
20.0687
20.1988
20.0709
20.2005
20.1919
20.0851
20.1932
20.0868
20.196
20.0646
20.1973
20.0666
20.0631
20.0736
20.0636
20.0733
20.0621
20.0813
20.0628
20.0807
20.0826
20.0826
20.0816
20.0816
20.0917
20.0917
20.0904
20.0904
20.0737
20.0631
20.0733
20.0637
20.0813
20.0621
20.0807
20.0628
20.0851
20.1919
20.0868
20.1932
20.0646
20.196
20.0666
20.1973
20.1895
20.0819
20.1907
20.0835
20.1937
20.0608
20.1948
20.0626
20.0618
20.0742
20.0625
20.0739
20.0606
20.0822
20.0614
20.0818
20.0845
20.0845
20.0836
20.0836
20.0941
20.0941
20.093
20.093
20.0742
20.0618
20.0739
20.0625
20.0822
20.0606
20.0818
20.0614
20.0819
20.1895
20.0835
20.1907
20.0608
20.1937
20.0626
20.1948
20.1875
20.079
20.1885
20.0804
20.1918
20.0574
20.1927
20.059
20.0604
20.0744
20.0611
20.0743
20.0591
20.0828
20.0598
20.0825
20.0859
20.0859
20.0852
20.0852
20.096
20.096
20.0952
20.0952
20.0744
20.0604
20.0743
20.0611
20.0828
20.0591
20.0825
20.0599
20.079
20.1875
20.0804
20.1885
20.0574
20.1917
20.059
20.1927
20.1857
20.0763
20.1866
20.0776
20.19
20.0542
20.1909
20.0557
20.059
20.0744
20.0597
20.0744
20.0575
20.083
20.0583
20.083
20.0869
20.0869
20.0864
20.0864
20.0975
20.0975
20.0968
20.0968
20.0744
20.059
20.0744
20.0597
20.083
20.0575
20.083
20.0583
20.0763
20.1857
20.0776
20.1866
20.0543
20.19
20.0558
20.1909
20.184
20.0738
20.1849
20.075
20.1883
20.0514
20.1892
20.0528
20.0575
20.0741
20.0582
20.0743
20.0558
20.083
20.0566
20.083
20.0874
20.0874
20.0872
20.0872
20.0984
20.0984
20.098
20.098
20.0741
20.0575
20.0743
20.0583
20.083
20.0558
20.083
20.0566
20.0738
20.184
20.075
20.1849
20.0514
20.1883
20.0528
20.1892
20.1825
20.0714
20.1833
20.0726
20.1867
20.0487
20.1875
20.05
20.0559
20.0735
20.0567
20.0738
20.0541
20.0826
20.055
20.0828
20.0876
20.0876
20.0876
20.0876
20.0988
20.0988
20.0986
20.0986
20.0735
20.056
20.0738
20.0567
20.0826
20.0541
20.0828
20.055
20.0714
20.1825
20.0726
20.1833
20.0487
20.1868
20.05
20.1876
20.1809
20.0692
20.1817
20.0702
20.1852
20.0461
20.186
20.0473
20.0543
20.0728
20.0551
20.0732
20.0524
20.0819
20.0533
20.0823
20.0874
20.0875
20.0876
20.0876
20.0988
20.0988
20.0989
20.0989
20.0728
20.0543
20.0732
20.0551
20.0819
20.0524
20.0823
20.0533
20.0692
20.1809
20.0703
20.1817
20.0461
20.1852
20.0474
20.186
20.1794
20.067
20.1802
20.068
20.1836
20.0437
20.1844
20.0449
20.0526
20.0718
20.0535
20.0723
20.0506
20.0811
20.0515
20.0815
20.087
20.087
20.0873
20.0873
20.0985
20.0985
20.0987
20.0987
20.0718
20.0526
20.0723
20.0535
20.0811
20.0506
20.0815
20.0515
20.067
20.1794
20.0681
20.1802
20.0437
20.1836
20.0449
20.1844
20.1778
20.0649
20.1786
20.0659
20.1819
20.0413
20.1828
20.0425
20.0509
20.0707
20.0518
20.0713
20.0488
20.08
20.0497
20.0805
20.0863
20.0863
20.0867
20.0867
20.0978
20.0978
20.0982
20.0982
20.0707
20.0509
20.0713
20.0518
20.08
20.0489
20.0805
20.0497
20.0649
20.1778
20.0659
20.1786
20.0413
20.182
20.0425
20.1828
20.1762
20.0628
20.177
20.0638
20.1803