/*--------------------------------*- C++ -*----------------------------------*\
  =========                 |
  \\      /  F ield         | OpenFOAM: The Open Source CFD Toolbox
   \\    /   O peration     | Website:  https://openfoam.org
    \\  /    A nd           | Version:  9
     \\/     M anipulation  |
\*---------------------------------------------------------------------------*/
FoamFile
{
    format      ascii;
    class       surfaceScalarField;
    location    "3.1";
    object      phi;
}
// * * * * * * * * * * * * * * * * * * * * * * * * * * * * * * * * * * * * * //

dimensions      [0 3 -1 0 0 0 0];

internalField   nonuniform List<scalar> 
104044
(
6.23362e-06
-0.00014901
-1.78754e-05
0.000139182
2.147e-05
-9.23969e-05
1.4331e-05
-2.12579e-06
0.000100816
-1.43903e-05
5.08183e-06
-2.5481e-05
2.41162e-05
1.78479e-05
-1.90866e-06
-1.56021e-05
-3.61947e-06
-0.000185412
0.000171156
-6.77754e-05
1.70546e-06
7.67814e-05
-2.48971e-06
1.08135e-06
-3.66775e-07
-0.000100188
-4.37159e-06
0.000100346
2.45445e-06
-0.000103923
-4.12641e-06
-3.67472e-08
0.000103301
4.41857e-06
-2.95741e-07
-4.13933e-06
1.3925e-06
-4.7116e-06
-1.80304e-08
3.82562e-06
1.61845e-07
-8.87305e-05
8.59025e-05
-0.000103975
-8.15935e-10
0.000100012
2.68493e-08
-2.32343e-08
-1.0847e-11
-0.000105637
-3.59934e-06
0.000105045
4.15459e-06
-0.000105637
-3.59956e-06
3.67027e-08
0.000105045
4.15477e-06
2.41477e-11
-4.31077e-06
3.79119e-06
-4.31067e-06
1.80395e-08
3.79123e-06
-3.15301e-11
-0.000108991
0.000105391
-0.000108992
7.87609e-10
0.000105392
-3.08304e-11
2.31901e-08
3.66678e-07
-0.000103923
-4.1272e-06
0.000103301
4.41933e-06
-0.000100187
-4.37361e-06
2.12522e-06
0.000100344
2.45749e-06
2.9559e-07
-4.71162e-06
3.8261e-06
-4.14102e-06
1.90789e-06
1.3954e-06
-1.61545e-07
-0.00010398
0.000100015
-8.87361e-05
-1.70426e-06
8.59052e-05
-2.67062e-08
-1.08044e-06
-6.23155e-06
-9.23916e-05
1.43227e-05
0.000100809
-1.43832e-05
-0.000149007
-1.78675e-05
0.000139183
2.14606e-05
-5.0792e-06
1.78388e-05
-1.55957e-05
-2.54684e-05
2.41051e-05
3.61598e-06
-6.77705e-05
7.6773e-05
-0.000185407
0.000171156
2.48717e-06
1.87262e-06
-0.000132397
-1.96525e-05
0.000127686
2.24908e-05
-0.000104747
1.82735e-05
-8.7041e-07
0.000106487
-1.72701e-05
3.52108e-06
-1.88005e-05
2.20647e-05
1.66839e-05
-1.20042e-06
-1.5894e-05
-8.72371e-06
-0.000158566
0.000147637
-8.45764e-05
3.33647e-06
9.07897e-05
-6.21089e-06
2.67804e-06
1.77885e-07
-0.000100934
-1.43459e-06
0.000101764
-4.43595e-07
-0.00010274
-2.52901e-06
4.70819e-08
0.000102382
3.01814e-06
-8.3174e-08
-2.65567e-06
9.50691e-07
-3.39153e-06
-1.88528e-09
3.87127e-06
7.25731e-07
-8.54516e-05
8.66277e-05
-9.70479e-05
1.1348e-07
9.51311e-05
4.73258e-07
4.53804e-08
-1.53072e-11
-0.000104303
-2.50109e-06
0.000103585
3.26604e-06
-0.000104303
-2.50131e-06
-4.70456e-08
0.000103585
3.26631e-06
-2.63679e-11
-3.08916e-06
3.82942e-06
-3.08942e-06
1.87362e-09
3.82968e-06
-9.26979e-12
-0.000102347
9.99592e-05
-0.000102348
-1.1341e-07
9.99599e-05
-2.27416e-11
-4.53649e-08
-1.77667e-07
-0.00010274
-2.5299e-06
0.000102381
3.01923e-06
-0.000100931
-1.43618e-06
8.70174e-07
0.000101761
-4.41329e-07
8.33365e-08
-3.3925e-06
3.87227e-06
-2.65795e-06
1.20016e-06
9.54213e-07
-7.25273e-07
-9.70504e-05
9.51324e-05
-8.54511e-05
-3.33536e-06
8.66251e-05
-4.72893e-07
-2.67678e-06
-1.87317e-06
-0.000104741
1.82674e-05
0.000106482
-1.72645e-05
-0.000132398
-1.96459e-05
0.000127688
2.24836e-05
-3.52094e-06
1.66764e-05
-1.58876e-05
-1.87942e-05
2.20574e-05
8.71873e-06
-8.45662e-05
9.07795e-05
-0.000158568
0.000147641
6.20641e-06
4.44194e-09
-0.000124067
-1.87372e-05
0.00012119
2.16103e-05
-0.000107337
1.87962e-05
-1.03646e-06
0.000107771
-1.81886e-05
7.7908e-07
-1.90652e-05
2.19049e-05
1.84522e-05
-8.72266e-07
-1.76514e-05
-1.20575e-05
-0.000139086
0.000132406
-9.50937e-05
3.79499e-06
9.80374e-05
-1.05137e-05
3.63446e-06
6.17223e-07
-0.000102465
-6.61936e-07
0.000103084
-1.61068e-06
-0.000102231
-1.19974e-06
2.13731e-07
0.000102269
1.56523e-06
4.02494e-07
-8.45346e-07
-1.13124e-06
-1.7364e-06
1.20433e-07
2.16976e-06
1.1524e-06
-8.84723e-05
9.0453e-05
-9.41415e-05
2.73455e-07
9.38207e-05
9.44528e-07
1.97752e-07
2.26379e-11
-0.000103028
-1.45751e-06
0.00010267
2.02979e-06
-0.000103028
-1.4577e-06
-2.13584e-07
0.000102669
2.02998e-06
3.34e-12
-1.91174e-06
2.5886e-06
-1.91193e-06
-1.20357e-07
2.58884e-06
7.87607e-12
-9.82451e-05
9.70611e-05
-9.82455e-05
-2.73349e-07
9.70612e-05
6.63452e-11
-1.9748e-07
-6.16973e-07
-0.000102229
-1.20028e-06
0.000102267
1.56596e-06
-0.000102462
-6.62714e-07
1.03582e-06
0.000103081
-1.60897e-06
-4.02198e-07
-1.73718e-06
2.17069e-06
-8.46308e-07
8.71714e-07
-1.12917e-06
-1.15191e-06
-9.41417e-05
9.38199e-05
-8.84684e-05
-3.79439e-06
9.04481e-05
-9.43956e-07
-3.63357e-06
-5.33814e-09
-0.000107333
1.87918e-05
0.000107767
-1.81845e-05
-0.000124069
-1.87321e-05
0.000121191
2.16044e-05
-7.799e-07
1.8447e-05
-1.76466e-05
-1.90601e-05
2.18989e-05
1.20526e-05
-9.50841e-05
9.80289e-05
-0.00013909
0.00013241
1.05088e-05
-9.81272e-07
-0.000118941
-1.798e-05
0.000117148
2.07542e-05
-0.000107981
1.90237e-05
-1.41802e-06
0.000108076
-1.86819e-05
-5.59997e-07
-1.81084e-05
2.09169e-05
1.8711e-05
-1.21059e-06
-1.82707e-05
-1.39684e-05
-0.000127309
0.000123297
-9.99804e-05
3.73136e-06
0.000101304
-1.30108e-05
3.75726e-06
8.25666e-07
-0.000103628
-6.12103e-07
0.000104117
-2.12056e-06
-0.000102433
-6.61485e-07
4.36452e-07
0.00010269
7.93447e-07
7.43086e-07
-6.00902e-07
-1.89613e-06
-8.4923e-07
3.24085e-07
1.10364e-06
1.44793e-06
-9.23063e-05
9.39776e-05
-9.39357e-05
4.02961e-07
9.43192e-05
1.30305e-06
3.38847e-07
4.91347e-11
-0.000102516
-7.56812e-07
0.000102532
1.17728e-06
-0.000102516
-7.56943e-07
-4.36235e-07
0.000102531
1.17735e-06
3.8653e-11
-1.05802e-06
1.53579e-06
-1.05819e-06
-3.23861e-07
1.53592e-06
5.04824e-11
-9.63419e-05
9.59879e-05
-9.63417e-05
-4.02774e-07
9.59876e-05
4.0178e-11
-3.38671e-07
-8.2554e-07
-0.000102432
-6.61662e-07
0.000102689
7.93817e-07
-0.000103625
-6.12443e-07
1.41725e-06
0.000104114
-2.11945e-06
-7.42894e-07
-8.49565e-07
1.10417e-06
-6.01414e-07
1.20987e-06
-1.89476e-06
-1.44743e-06
-9.39343e-05
9.43172e-05
-9.23011e-05
-3.73115e-06
9.39723e-05
-1.30254e-06
-3.75688e-06
9.80425e-07
-0.000107977
1.90202e-05
0.000108073
-1.86788e-05
-0.000118943
-1.79758e-05
0.000117149
2.07494e-05
5.59104e-07
1.87071e-05
-1.82671e-05
-1.81043e-05
2.09119e-05
1.39642e-05
-9.99728e-05
0.000101298
-0.000127312
0.000123301
1.30063e-05
-1.51286e-06
-0.000115733
-1.75493e-05
0.0001146
2.01953e-05
-0.000108121
1.92035e-05
-1.77302e-06
0.000108147
-1.89693e-05
-1.27401e-06
-1.75494e-05
2.02387e-05
1.89249e-05
-1.58716e-06
-1.86572e-05
-1.50538e-05
-0.000120191
0.000117695
-0.000102189
3.52383e-06
0.000102814
-1.44429e-05
3.59778e-06
8.49835e-07
-0.000104555
-6.6093e-07
0.000104959
-2.36594e-06
-0.00010301
-4.82948e-07
5.6757e-07
0.000103375
4.00197e-07
8.45838e-07
-6.31895e-07
-2.23938e-06
-5.38423e-07
5.07676e-07
5.57189e-07
1.62106e-06
-9.54102e-05
9.6652e-05
-9.48647e-05
4.94792e-07
9.5508e-05
1.53334e-06
4.49426e-07
6.01007e-11
-0.000102675
-3.49474e-07
0.000102916
6.75566e-07
-0.000102674
-3.49526e-07
-5.67375e-07
0.000102915
6.75563e-07
5.53709e-11
-5.17059e-07
8.81944e-07
-5.17149e-07
-5.07468e-07
8.81976e-07
5.76205e-11
-9.59203e-05
9.60655e-05
-9.59197e-05
-4.94608e-07
9.60648e-05
5.5087e-11
-4.4924e-07
-8.49837e-07
-0.000103008
-4.82901e-07
0.000103373
4.00334e-07
-0.000104552
-6.61102e-07
1.77225e-06
0.000104956
-2.36518e-06
-8.4578e-07
-5.38471e-07
5.57417e-07
-6.32134e-07
1.58638e-06
-2.23847e-06
-1.62063e-06
-9.48624e-05
9.55055e-05
-9.5405e-05
-3.52382e-06
9.66471e-05
-1.53288e-06
-3.59769e-06
1.51213e-06
-0.000108119
1.92007e-05
0.000108145
-1.89668e-05
-0.000115734
-1.75458e-05
0.000114601
2.01912e-05
1.27321e-06
1.89218e-05
-1.86544e-05
-1.7546e-05
2.02346e-05
1.50502e-05
-0.000102183
0.000102809
-0.000120194
0.000117698
1.4439e-05
-1.80821e-06
-0.000113702
-1.72661e-05
0.000112989
1.97877e-05
-0.000108179
1.92987e-05
-2.0502e-06
0.000108225
-1.91021e-05
-1.66492e-06
-1.72137e-05
1.97762e-05
1.90594e-05
-1.90181e-06
-1.88547e-05
-1.56568e-05
-0.000115729
0.00011412
-0.000103249
3.30304e-06
0.000103588
-1.52474e-05
3.37763e-06
7.7846e-07
-0.000105334
-6.9015e-07
0.00010569
-2.49422e-06
-0.000103763
-4.456e-07
6.25365e-07
0.000104171
1.90875e-07
8.13634e-07
-6.73457e-07
-2.41695e-06
-4.50324e-07
5.97544e-07
2.77899e-07
1.69808e-06
-9.77033e-05
9.86181e-05
-9.61897e-05
5.48706e-07
9.68934e-05
1.65284e-06
5.2083e-07
6.57124e-11
-0.000103226
-1.35306e-07
0.000103589
3.97569e-07
-0.000103225
-1.35297e-07
-6.25214e-07
0.000103588
3.97526e-07
6.15152e-11
-2.2265e-07
5.10425e-07
-2.22671e-07
-5.97372e-07
5.10399e-07
5.83985e-11
-9.63636e-05
9.6777e-05
-9.63629e-05
-5.48541e-07
9.67762e-05
5.72119e-11
-5.20658e-07
-7.78564e-07
-0.000103762
-4.45432e-07
0.00010417
1.90888e-07
-0.000105332
-6.90267e-07
2.04948e-06
0.000105687
-2.49367e-06
-8.13691e-07
-4.50207e-07
2.77963e-07
-6.73592e-07
1.90106e-06
-2.41632e-06
-1.69773e-06
-9.61871e-05
9.68909e-05
-9.76987e-05
-3.30314e-06
9.86138e-05
-1.65246e-06
-3.37768e-06
1.80761e-06
-0.000108177
1.92963e-05
0.000108223
-1.91e-05
-0.000113703
-1.72631e-05
0.000112989
1.97843e-05
1.66425e-06
1.90568e-05
-1.88525e-05
-1.72108e-05
1.97728e-05
1.56538e-05
-0.000103244
0.000103584
-0.000115731
0.000114122
1.52442e-05
-1.97354e-06
-0.000112427
-1.70251e-05
0.000111991
1.94344e-05
-0.000108294
1.93048e-05
-2.25135e-06
0.000108383
-1.91161e-05
-1.88467e-06
-1.69673e-05
1.94133e-05
1.91178e-05
-2.13754e-06
-1.8934e-05
-1.59655e-05
-0.000112839
0.00011178
-0.000103849
3.10394e-06
0.000104084
-1.56871e-05
3.16919e-06
6.65459e-07
-0.000106031
-6.85295e-07
0.000106369
-2.56911e-06
-0.000104583
-4.52473e-07
6.3684e-07
0.000105004
6.04109e-08
7.1815e-07
-6.87269e-07
-2.50983e-06
-4.43197e-07
6.28914e-07
1.20159e-07
1.7107e-06
-9.94057e-05
0.000100114
-9.75863e-05
5.72196e-07
9.82723e-05
1.6943e-06
5.58247e-07
7.24177e-11
-0.000103983
-3.28729e-08
0.000104406
2.46531e-07
-0.000103982
-3.28378e-08
-6.36716e-07
0.000104405
2.46475e-07
6.7334e-11
-7.31513e-08
3.08003e-07
-7.31252e-08
-6.28784e-07
3.07953e-07
7.13874e-11
-9.7262e-05
9.78012e-05
-9.72612e-05
-5.72025e-07
9.78004e-05
6.18272e-11
-5.58087e-07
-6.65643e-07
-0.000104582
-4.52272e-07
0.000105003
6.03743e-08
-0.000106029
-6.8543e-07
2.25069e-06
0.000106367
-2.56866e-06
-7.18295e-07
-4.43004e-07
1.20139e-07
-6.87398e-07
2.13686e-06
-2.50934e-06
-1.71042e-06
-9.75838e-05
9.82699e-05
-9.94018e-05
-3.10408e-06
0.00010011
-1.694e-06
-3.16932e-06
1.97306e-06
-0.000108292
1.93028e-05
0.000108381
-1.91144e-05
-0.000112428
-1.70224e-05
0.000111992
1.94314e-05
1.88413e-06
1.91155e-05
-1.89321e-05
-1.69648e-05
1.94104e-05
1.59629e-05
-0.000103846
0.000104081
-0.000112842
0.000111782
1.56843e-05
-2.06391e-06
-0.000111656
-1.67916e-05
0.000111411
1.91007e-05
-0.000108496
1.92312e-05
-2.38676e-06
0.000108628
-1.90405e-05
-2.00593e-06
-1.67313e-05
1.90724e-05
1.90782e-05
-2.30198e-06
-1.88956e-05
-1.60907e-05
-0.000110938
0.000110237
-0.000104288
2.93334e-06
0.000104495
-1.58891e-05
2.98557e-06
5.84871e-07
-0.000106698
-6.69389e-07
0.000107024
-2.62791e-06
-0.000105421
-4.58929e-07
6.26384e-07
0.000105843
-4.78376e-09
6.15679e-07
-6.72744e-07
-2.5742e-06
-4.53361e-07
6.26822e-07
2.52367e-08
1.68277e-06
-0.000100743
0.000101324
-9.89332e-05
5.74303e-07
9.95827e-05
1.68397e-06
5.69717e-07
8.02851e-11
-0.000104839
2.04777e-08
0.000105286
1.58677e-07
-0.000104838
2.05205e-08
-6.26236e-07
0.000105286
1.58604e-07
7.7235e-11
-1.43106e-09
1.95137e-07
-1.39097e-09
-6.2668e-07
1.95074e-07
7.31579e-11
-9.83694e-05
9.89641e-05
-9.83687e-05
-5.7411e-07
9.89634e-05
7.75977e-11
-5.69529e-07
-5.84913e-07
-0.00010542
-4.58761e-07
0.000105842
-4.87339e-09
-0.000106696
-6.69462e-07
2.38624e-06
0.000107022
-2.62755e-06
-6.15743e-07
-4.53196e-07
2.51774e-08
-6.72845e-07
2.30138e-06
-2.57379e-06
-1.68248e-06
-9.89309e-05
9.95805e-05
-0.000100739
-2.93334e-06
0.000101321
-1.68371e-06
-2.98569e-06
2.06353e-06
-0.000108495
1.92295e-05
0.000108627
-1.90391e-05
-0.000111657
-1.67892e-05
0.000111411
1.90981e-05
2.00547e-06
1.90763e-05
-1.8894e-05
-1.67291e-05
1.90697e-05
1.60885e-05
-0.000104285
0.000104493
-0.00011094
0.000110239
1.58866e-05
-2.10885e-06
-0.000111234
-1.65388e-05
0.000111125
1.87573e-05
-0.000108783
1.90854e-05
-2.47442e-06
0.000108955
-1.88915e-05
-2.06927e-06
-1.64859e-05
1.8732e-05
1.89596e-05
-2.40922e-06
-1.87745e-05
-1.60884e-05
-0.000109688
0.000109238
-0.00010469
2.78627e-06
0.0001049
-1.59373e-05
2.82782e-06
5.14945e-07
-0.000107348
-6.44926e-07
0.000107674
-2.67042e-06
-0.000106261
-4.57094e-07
6.04833e-07
0.000106681
-5.35191e-08
5.43341e-07
-6.53481e-07
-2.62344e-06
-4.54263e-07
6.10159e-07
-3.00647e-08
1.63351e-06
-0.000101855
0.000102363
-0.000100207
5.63347e-07
0.00010082
1.64284e-06
5.64124e-07
8.2934e-11
-0.000105732
4.75625e-08
0.000106185
1.04094e-07
-0.000105732
4.76627e-08
-6.04679e-07
0.000106185
1.03993e-07
7.83607e-11
3.67733e-08
1.27096e-07
3.68498e-08
-6.10023e-07
1.2701e-07
1.24613e-10
-9.9565e-05
0.000100176
-9.95642e-05
-5.62997e-07
0.000100175
6.97707e-11
-5.63932e-07
-5.14927e-07
-0.00010626
-4.56841e-07
0.000106681
-5.36787e-08
-0.000107347
-6.44955e-07
2.47407e-06
0.000107673
-2.67007e-06
-5.43363e-07
-4.54083e-07
-3.01889e-08
-6.53537e-07
2.40879e-06
-2.62312e-06
-1.6329e-06
-0.000100205
0.000100818
-0.000101852
-2.78566e-06
0.00010236
-1.64259e-06
-2.82782e-06
2.10878e-06
-0.000108782
1.9083e-05
0.000108954
-1.88894e-05
-0.000111234
-1.65357e-05
0.000111124
1.87545e-05
2.06905e-06
1.89585e-05
-1.87737e-05
-1.64841e-05
1.87302e-05
1.60868e-05
-0.000104687
0.000104898
-0.000109691
0.000109242
1.59363e-05
-2.12372e-06
-0.000111063
-1.62512e-05
0.000111053
1.83846e-05
-0.000109147
1.88685e-05
-2.52542e-06
0.000109355
-1.86741e-05
-2.09784e-06
-1.62235e-05
1.83834e-05
1.87837e-05
-2.47684e-06
-1.8597e-05
-1.59752e-05
-0.000108894
0.000108618
-0.00010511
2.65949e-06
0.000105343
-1.58799e-05
2.69463e-06
4.54395e-07
-0.000108002
-6.14974e-07
0.000108333
-2.69581e-06
-0.000107096
-4.51835e-07
5.76093e-07
0.000107512
-8.5576e-08
4.78688e-07
-6.25913e-07
-2.65749e-06
-4.5055e-07
5.84709e-07
-7.02057e-08
1.57623e-06
-0.000102842
0.00010331
-0.00010141
5.45089e-07
0.000101989
1.58991e-06
5.4946e-07
-9.66165e-11
-0.000106634
5.77956e-08
0.000107085
6.6914e-08
-0.000106633
5.77683e-08
-5.76326e-07
0.000107085
6.68853e-08
2.07061e-11
5.30876e-08
8.31869e-08
5.31656e-08
-5.84678e-07
8.31071e-08
-4.4988e-10
-0.000100778
0.000101382
-0.000100778
-5.46245e-07
0.000101381
-4.45985e-11
-5.49472e-07
-4.54836e-07
-0.000107095
-4.52119e-07
0.000107511
-8.5362e-08
-0.000108001
-6.15843e-07
2.52474e-06
0.000108332
-2.69516e-06
-4.78751e-07
-4.50395e-07
-7.02956e-08
-6.26225e-07
2.47649e-06
-2.65697e-06
-1.57832e-06
-0.000101408
0.000101988
-0.000102839
-2.66367e-06
0.000103308
-1.58965e-06
-2.69453e-06
2.12469e-06
-0.000109146
1.88716e-05
0.000109354
-1.86794e-05
-0.000111063
-1.62552e-05
0.000111053
1.83896e-05
2.0981e-06
1.87805e-05
-1.85946e-05
-1.62208e-05
1.83807e-05
1.59725e-05
-0.000105108
0.000105343
-0.000108898
0.000108615
1.58764e-05
-2.12093e-06
-0.000111075
-1.59498e-05
0.000111138
1.80079e-05
-0.000109578
1.8616e-05
-2.55091e-06
0.000109813
-1.84214e-05
-2.10301e-06
-1.59306e-05
1.80109e-05
1.85514e-05
-2.51459e-06
-1.83631e-05
-1.58127e-05
-0.000108435
0.000108298
-0.000105572
2.54743e-06
0.000105828
-1.57478e-05
2.57451e-06
4.03425e-07
-0.000108666
-5.83391e-07
0.000109002
-2.70714e-06
-0.000107921
-4.43164e-07
5.46931e-07
0.000108332
-1.10896e-07
4.23451e-07
-5.95161e-07
-2.676e-06
-4.43824e-07
5.55506e-07
-9.77544e-08
1.51846e-06
-0.000103758
0.000104203
-0.000102548
5.24645e-07
0.000103098
1.53169e-06
5.29653e-07
1.93435e-11
-0.000107529
6.19562e-08
0.000107974
3.98231e-08
-0.000107529
6.19918e-08
-5.4685e-07
0.000107974
3.97167e-08
-7.814e-11
5.95929e-08
5.18393e-08
5.95357e-08
-5.55715e-07
5.18217e-08
-2.33744e-10
-0.000101971
0.000102558
-0.000101971
-5.25079e-07
0.000102558
-4.23746e-10
-5.30806e-07
-4.03257e-07
-0.000107921
-4.43161e-07
0.000108332
-1.11032e-07
-0.000108666
-5.82903e-07
2.55093e-06
0.000109002
-2.70738e-06
-4.23863e-07
-4.44233e-07
-9.75318e-08
-5.95944e-07
2.51386e-06
-2.67554e-06
-1.51893e-06
-0.000102547
0.000103098
-0.000103757
-2.54689e-06
0.000104202
-1.5342e-06
-2.5794e-06
2.12128e-06
-0.000109578
1.86253e-05
0.000109813
-1.84306e-05
-0.000111076
-1.59574e-05
0.000111138
1.80161e-05
2.10395e-06
1.85589e-05
-1.8373e-05
-1.59391e-05
1.80203e-05
1.58244e-05
-0.000105575
0.000105829
-0.000108424
0.000108291
1.57477e-05
-2.1055e-06
-0.000111226
-1.5637e-05
0.000111344
1.76243e-05
-0.000110062
1.83217e-05
-2.55408e-06
0.00011032
-1.81305e-05
-2.09347e-06
-1.56265e-05
1.76325e-05
1.82771e-05
-2.52829e-06
-1.80914e-05
-1.55862e-05
-0.000108217
0.000108166
-0.000106086
2.45383e-06
0.000106368
-1.55452e-05
2.47425e-06
3.61695e-07
-0.00010934
-5.5456e-07
0.000109681
-2.70136e-06
-0.000108736
-4.32608e-07
5.19661e-07
0.00010914
-1.29631e-07
3.77863e-07
-5.65545e-07
-2.67892e-06
-4.34043e-07
5.27553e-07
-1.19816e-07
1.46548e-06
-0.000104635
0.000105069
-0.000103632
5.04684e-07
0.00010416
1.47663e-06
5.09363e-07
5.11528e-11
-0.000108411
6.26855e-08
0.000108847
2.11556e-08
-0.000108411
6.27935e-08
-5.19482e-07
0.000108847
2.09541e-08
3.12451e-11
6.19308e-08
2.91861e-08
6.20389e-08
-5.27363e-07
2.89924e-08
-3.20426e-10
-0.00010313
0.000103698
-0.00010313
-5.05306e-07
0.000103697
-4.04249e-10
-5.10017e-07
-3.61449e-07
-0.000108736
-4.32329e-07
0.00010914
-1.3002e-07
-0.00010934
-5.52832e-07
2.55381e-06
0.00010968
-2.70264e-06
-3.77437e-07
-4.33736e-07
-1.20214e-07
-5.63795e-07
2.52854e-06
-2.68011e-06
-1.46636e-06
-0.000103631
0.000104159
-0.000104634
-2.45467e-06
0.00010507
-1.47685e-06
-2.47252e-06
2.10484e-06
-0.000110062
1.83378e-05
0.000110319
-1.81464e-05
-0.000111225
-1.56541e-05
0.000111344
1.76406e-05
2.09324e-06
1.82917e-05
-1.8105e-05
-1.56395e-05
1.76458e-05
1.55995e-05
-0.000106084
0.000106368
-0.000108215
0.00010816
1.5564e-05
-2.08328e-06
-0.000111473
-1.53452e-05
0.000111627
1.72744e-05
-0.000110585
1.80306e-05
-2.54426e-06
0.000110854
-1.78383e-05
-2.07402e-06
-1.53237e-05
1.72686e-05
1.79862e-05
-2.52345e-06
-1.78022e-05
-1.53679e-05
-0.000108173
0.000108195
-0.00010664
2.36585e-06
0.000106937
-1.53301e-05
2.38332e-06
3.27384e-07
-0.00011002
-5.24833e-07
0.000110359
-2.68532e-06
-0.000109537
-4.21417e-07
4.95192e-07
0.000109931
-1.40727e-07
3.40187e-07
-5.35396e-07
-2.66796e-06
-4.22861e-07
5.01681e-07
-1.34878e-07
1.41491e-06
-0.000105492
0.000105918
-0.000104672
4.85423e-07
0.00010518
1.4253e-06
4.89896e-07
1.4297e-10
-0.000109272
6.10014e-08
0.000109694
1.14773e-08
-0.000109272
6.10494e-08
-4.9482e-07
0.000109694
1.13892e-08
9.55901e-11
6.14757e-08
1.48876e-08
6.15573e-08
-5.01438e-07
1.47383e-08
1.37344e-10
-0.000104249
0.000104795
-0.000104249
-4.84971e-07
0.000104795
-4.42515e-11
-4.89979e-07
-3.26983e-07
-0.000109536
-4.21265e-07
0.000109931
-1.4073e-07
-0.00011002
-5.24399e-07
2.54434e-06
0.000110358
-2.685e-06
-3.39986e-07
-4.22707e-07
-1.35069e-07
-5.34523e-07
2.52309e-06
-2.66835e-06
-1.41362e-06
-0.000104672
0.00010518
-0.000105493
-2.36196e-06
0.000105917
-1.42562e-06
-2.38358e-06
2.08212e-06
-0.000110585
1.80402e-05
0.000110853
-1.78457e-05
-0.000111473
-1.53505e-05
0.000111626
1.72794e-05
2.07309e-06
1.79991e-05
-1.78147e-05
-1.53368e-05
1.72803e-05
1.53864e-05
-0.000106641
0.000106933
-0.000108165
0.000108201
1.53418e-05
-2.05245e-06
-0.000111785
-1.50396e-05
0.00011196
1.69171e-05
-0.000111127
1.77004e-05
-2.51958e-06
0.000111399
-1.75051e-05
-2.04751e-06
-1.50318e-05
1.6921e-05
1.76794e-05
-2.50561e-06
-1.74945e-05
-1.51006e-05
-0.000108246
0.000108307
-0.000107228
2.29063e-06
0.000107537
-1.50827e-05
2.30575e-06
2.99729e-07
-0.000110695
-5.0502e-07
0.000111025
-2.6452e-06
-0.000110315
-4.13448e-07
4.73106e-07
0.000110694
-1.38889e-07
3.09865e-07
-5.10348e-07
-2.6409e-06
-4.13027e-07
4.78745e-07
-1.40063e-07
1.3684e-06
-0.000106335
0.000106752
-0.000105674
4.67835e-07
0.000106161
1.37842e-06
4.72015e-07
6.60516e-11
-0.000110104
5.45011e-08
0.000110508
1.48253e-08
-0.000110104
5.4506e-08
-4.73e-07
0.000110508
1.47853e-08
1.37741e-10
5.7725e-08
1.11809e-08
5.77384e-08
-4.78426e-07
1.11406e-08
1.01687e-10
-0.000105325
0.000105847
-0.000105324
-4.67729e-07
0.000105847
3.26782e-10
-4.71243e-07
-2.99924e-07
-0.000110315
-4.13515e-07
0.000110694
-1.3872e-07
-0.000110694
-5.06132e-07
2.51872e-06
0.000111025
-2.64388e-06
-3.09643e-07
-4.12944e-07
-1.39959e-07
-5.10724e-07
2.50538e-06
-2.63995e-06
-1.36849e-06
-0.000105672
0.00010616
-0.000106332
-2.29226e-06
0.00010675
-1.3768e-06
-2.30273e-06
2.05107e-06
-0.000111126
1.77006e-05
0.000111398
-1.75057e-05
-0.000111785
-1.50416e-05
0.000111961
1.69166e-05
2.04607e-06
1.76814e-05
-1.74952e-05
-1.50325e-05
1.69197e-05
1.50952e-05
-0.000107223
0.000107536
-0.000108257
0.000108311
1.50886e-05
-2.01775e-06
-0.000112133
-1.47307e-05
0.000112314
1.65675e-05
-0.000111668
1.73507e-05
-2.48771e-06
0.000111928
-1.7141e-05
-2.01381e-06
-1.47209e-05
1.65623e-05
1.73357e-05
-2.47706e-06
-1.71417e-05
-1.48344e-05
-0.000108399
0.000108503
-0.000107833
2.21314e-06
0.000108136
-1.48126e-05
2.22697e-06
2.77094e-07
-0.000111348
-4.94805e-07
0.000111661
-2.58243e-06
-0.000111059
-4.10607e-07
4.53688e-07
0.000111414
-1.21014e-07
2.84778e-07
-4.95147e-07
-2.58974e-06
-4.0719e-07
4.57959e-07
-1.30754e-07
1.32108e-06
-0.000107154
0.000107551
-0.000106629
4.51042e-07
0.000107089
1.33004e-06
4.54132e-07
1.40473e-10
-0.000110895
4.14167e-08
0.000111272
3.51212e-08
-0.000110895
4.16276e-08
-4.53455e-07
0.000111272
3.49017e-08
5.87303e-11
4.83839e-08
2.23325e-08
4.8474e-08
-4.57868e-07
2.22103e-08
1.41823e-10
-0.000106349
0.000106842
-0.000106349
-4.50694e-07
0.000106842
-4.20135e-11
-4.54313e-07
-2.77314e-07
-0.000111059
-4.10037e-07
0.000111414
-1.21354e-07
-0.000111348
-4.93969e-07
2.48629e-06
0.000111661
-2.58256e-06
-2.85023e-07
-4.06993e-07
-1.30792e-07
-4.95395e-07
2.47616e-06
-2.58902e-06
-1.32074e-06
-0.000106629
0.000107089
-0.000107153
-2.2131e-06
0.000107551
-1.33041e-06
-2.22835e-06
2.01756e-06
-0.000111667
1.73516e-05
0.000111927
-1.71424e-05
-0.000112135
-1.47338e-05
0.000112316
1.65696e-05
2.01294e-06
1.73373e-05
-1.71431e-05
-1.47239e-05
1.65636e-05
1.48351e-05
-0.000107834
0.000108137
-0.000108399
0.0001085
1.48117e-05
-1.98131e-06
-0.000112488
-1.44303e-05
0.000112656
1.62429e-05
-0.000112178
1.69713e-05
-2.44363e-06
0.00011242
-1.67504e-05
-1.97892e-06
-1.443e-05
1.6235e-05
1.69869e-05
-2.44024e-06
-1.67753e-05
-1.4517e-05
-0.000108601
0.000108688
-0.000108433
2.15582e-06
0.000108731
-1.45284e-05
2.16245e-06
2.6036e-07
-0.000111961
-4.98123e-07
0.000112247
-2.49166e-06
-0.000111751
-4.16572e-07
4.3704e-07
0.000112074
-8.30843e-08
2.65526e-07
-4.90685e-07
-2.51506e-06
-4.0834e-07
4.40296e-07
-1.0351e-07
1.28212e-06
-0.000107934
0.00010831
-0.000107529
4.37331e-07
0.000107958
1.28837e-06
4.39637e-07
2.31211e-10
-0.000111629
1.52541e-08
0.000111972
7.83356e-08
-0.000111629
1.53854e-08
-4.36447e-07
0.000111972
7.80903e-08
2.16518e-10
2.98624e-08
5.29643e-08
3.01391e-08
-4.39888e-07
5.27004e-08
2.05514e-11
-0.000107311
0.000107764
-0.000107311
-4.37036e-07
0.000107764
1.72729e-10
-4.3904e-07
-2.59548e-07
-0.000111751
-4.16042e-07
0.000112074
-8.36977e-08
-0.000111962
-4.97009e-07
2.44396e-06
0.000112247
-2.49203e-06
-2.6547e-07
-4.0767e-07
-1.04016e-07
-4.8954e-07
2.43892e-06
-2.51541e-06
-1.28085e-06
-0.00010753
0.000107957
-0.000107936
-2.15151e-06
0.000108309
-1.28751e-06
-2.16173e-06
1.98013e-06
-0.000112176
1.69718e-05
0.000112418
-1.67497e-05
-0.000112493
-1.44283e-05
0.00011266
1.62412e-05
1.97809e-06
1.69874e-05
-1.67755e-05
-1.44347e-05
1.62362e-05
1.45287e-05
-0.000108439
0.00010873
-0.000108589
0.00010869
1.45242e-05
-1.94703e-06
-0.000112799
-1.41126e-05
0.000112927
1.59311e-05
-0.00011265
1.65592e-05
-2.3971e-06
0.000112862
-1.63211e-05
-1.94489e-06
-1.41149e-05
1.59175e-05
1.65894e-05
-2.39521e-06
-1.63691e-05
-1.42208e-05
-0.000108808
0.000108916
-0.000108986
2.09219e-06
0.000109232
-1.42353e-05
2.09946e-06
2.4713e-07
-0.000112515
-5.20009e-07
0.00011276
-2.36965e-06
-0.000112376
-4.3716e-07
4.22208e-07
0.000112655
-1.68848e-08
2.50532e-07
-5.03904e-07
-2.41011e-06
-4.20496e-07
4.25298e-07
-5.64271e-08
1.2429e-06
-0.000108656
0.000108986
-0.00010836
4.23239e-07
0.000108743
1.24926e-06
4.25994e-07
-3.58951e-11
-0.00011229
-2.1962e-08
0.000112586
1.48196e-07
-0.00011229
-2.23949e-08
-4.21932e-07
0.000112586
1.48139e-07
1.22389e-10
-1.13486e-09
1.08776e-07
-1.11088e-09
-4.24868e-07
1.08594e-07
-3.27501e-10
-0.000108189
0.00010859
-0.000108189
-4.24382e-07
0.00010859
-2.76722e-10
-4.26667e-07
-2.46566e-07
-0.000112376
-4.37409e-07
0.000112655
-1.70354e-08
-0.000112515
-5.1984e-07
2.39792e-06
0.000112761
-2.36977e-06
-2.49874e-07
-4.20423e-07
-5.67028e-08
-5.02878e-07
2.39563e-06
-2.41092e-06
-1.24439e-06
-0.000108361
0.000108743
-0.000108657
-2.09297e-06
0.000108985
-1.25046e-06
-2.10075e-06
1.94368e-06
-0.000112651
1.65729e-05
0.000112863
-1.63315e-05
-0.000112799
-1.41236e-05
0.000112927
1.59398e-05
1.94307e-06
1.65996e-05
-1.638e-05
-1.41233e-05
1.59275e-05
1.4236e-05
-0.000108984
0.000109228
-0.000108812
0.000108924
1.42453e-05
-1.90481e-06
-0.000113036
-1.38565e-05
0.000113129
1.56685e-05
-0.000113044
1.61718e-05
-2.34846e-06
0.000113184
-1.58689e-05
-1.90482e-06
-1.38343e-05
1.56304e-05
1.61898e-05
-2.34704e-06
-1.59297e-05
-1.3924e-05
-0.000109
0.000109067
-0.000109459
2.03557e-06
0.000109671
-1.39178e-05
2.04464e-06
2.39651e-07
-0.000112978
-5.53368e-07
0.00011316
-2.21658e-06
-0.000112905
-4.79334e-07
4.06723e-07
0.000113119
9.81874e-08
2.40101e-07
-5.30917e-07
-2.27386e-06
-4.50275e-07
4.10537e-07
3.00112e-08
1.20766e-06
-0.000109287
0.000109561
-0.000109093
4.09924e-07
0.000109411
1.21261e-06
4.12214e-07
1.31233e-10
-0.000112847
-6.89422e-08
0.000113076
2.46558e-07
-0.000112847
-6.89057e-08
-4.0647e-07
0.000113076
2.46512e-07
3.97481e-11
-4.23747e-08
1.91517e-07
-4.25083e-08
-4.1034e-07
1.91506e-07
8.89234e-11
-0.00010896
0.000109301
-0.000108961
-4.09688e-07
0.000109302
-2.46981e-10
-4.12963e-07
-2.39532e-07
-0.000112905
-4.7932e-07
0.000113119
9.82448e-08
-0.000112978
-5.53654e-07
2.3478e-06
0.00011316
-2.21561e-06
-2.3973e-07
-4.5064e-07
3.01333e-08
-5.31268e-07
2.34755e-06
-2.27324e-06
-1.20758e-06
-0.000109093
0.000109412
-0.000109285
-2.03704e-06
0.00010956
-1.21371e-06
-2.04418e-06
1.90038e-06
-0.000113044
1.61695e-05
0.000113185
-1.58629e-05
-0.000113034
-1.38561e-05
0.00011313
1.56603e-05
1.90182e-06
1.62012e-05
-1.59361e-05
-1.38389e-05
1.56338e-05
1.39104e-05
-0.000109447
0.000109669
-0.000109023
0.000109078
1.39379e-05
-1.8641e-06
-0.000113179
-1.35853e-05
0.000113195
1.54339e-05
-0.0001133
1.572e-05
-2.29432e-06
0.000113377
-1.53675e-05
-1.86638e-06
-1.35766e-05
1.53928e-05
1.57846e-05
-2.29686e-06
-1.54695e-05
-1.35895e-05
-0.000109113
0.000109117
-0.00010984
1.98754e-06
0.000109983
-1.36225e-05
1.99382e-06
2.37539e-07
-0.000113307
-6.12422e-07
0.00011341
-2.02289e-06
-0.000113291
-5.42555e-07
3.91131e-07
0.000113422
2.58559e-07
2.36278e-07
-5.77063e-07
-2.10337e-06
-5.04717e-07
3.94436e-07
1.74166e-07
1.17773e-06
-0.000109796
0.000109993
-0.000109689
3.97258e-07
0.000109927
1.18216e-06
3.99906e-07
-7.20954e-11
-0.000113264
-1.36116e-07
0.00011341
3.81368e-07
-0.000113264
-1.36041e-07
-3.91259e-07
0.00011341
3.81174e-07
6.97014e-11
-9.91879e-08
3.05991e-07
-9.90842e-08
-3.94265e-07
3.05861e-07
-2.45141e-10
-0.000109602
0.000109863
-0.000109602
-3.97835e-07
0.000109863
3.82105e-11
-3.99445e-07
-2.38032e-07
-0.000113292
-5.42307e-07
0.000113423
2.58058e-07
-0.000113307
-6.14607e-07
2.29334e-06
0.000113413
-2.02229e-06
-2.36198e-07
-5.04365e-07
1.73854e-07
-5.77838e-07
2.29673e-06
-2.10271e-06
-1.17886e-06
-0.000109689
0.000109928
-0.000109794
-1.99201e-06
0.000109992
-1.18077e-06
-1.99198e-06
1.86315e-06
-0.000113301
1.57115e-05
0.000113383
-1.53632e-05
-0.000113179
-1.3579e-05
0.000113191
1.54307e-05
1.86385e-06
1.57737e-05
-1.54571e-05
-1.35656e-05
1.53799e-05
1.35812e-05
-0.000109835
0.000109973
-0.000109127
0.00010913
1.36156e-05
-1.82292e-06
-0.000113158
-1.33744e-05
0.000113081
1.52746e-05
-0.000113407
1.52824e-05
-2.2354e-06
0.00011338
-1.48427e-05
-1.82459e-06
-1.33316e-05
1.51924e-05
1.53438e-05
-2.24104e-06
-1.49567e-05
-1.32843e-05
-0.000109106
0.000109016
-0.000110063
1.94408e-06
0.000110117
-1.33207e-05
1.94251e-06
2.38024e-07
-0.000113469
-6.88517e-07
0.000113474
-1.78976e-06
-0.000113504
-6.21864e-07
3.78581e-07
0.000113534
4.51129e-07
2.35101e-07
-6.41928e-07
-1.89312e-06
-5.74166e-07
3.80466e-07
3.46466e-07
1.14967e-06
-0.000110142
0.000110248
-0.000110116
3.86163e-07
0.000110258
1.15144e-06
3.87526e-07
1.4142e-11
-0.000113506
-2.25177e-07
0.000113549
5.60564e-07
-0.000113506
-2.24912e-07
-3.78425e-07
0.000113549
5.60304e-07
-1.42843e-11
-1.76154e-07
4.60637e-07
-1.75963e-07
-3.80391e-07
4.60383e-07
-9.03951e-11
-0.000110075
0.000110236
-0.000110075
-3.85965e-07
0.000110236
-1.7105e-10
-3.87648e-07
-2.3747e-07
-0.000113505
-6.20823e-07
0.000113534
4.50458e-07
-0.000113472
-6.88041e-07
2.23757e-06
0.000113474
-1.78939e-06
-2.35074e-07
-5.73428e-07
3.45836e-07
-6.43158e-07
2.24127e-06
-1.89224e-06
-1.14733e-06
-0.000110117
0.000110258
-0.000110143
-1.94201e-06
0.00011025
-1.15066e-06
-1.94486e-06
1.82294e-06
-0.000113413
1.52767e-05
0.000113379
-1.48289e-05
-0.000113158
-1.33651e-05
0.000113086
1.52603e-05
1.82319e-06
1.53318e-05
-1.49433e-05
-1.33235e-05
1.51792e-05
1.32689e-05
-0.000110061
0.000110127
-0.000109105
0.000109009
1.3299e-05
-1.77716e-06
-0.000112937
-1.31424e-05
0.000112733
1.51238e-05
-0.000113306
1.47749e-05
-2.18039e-06
0.000113167
-1.4232e-05
-1.782e-06
-1.31042e-05
1.50299e-05
1.48615e-05
-2.18419e-06
-1.4386e-05
-1.2944e-05
-0.000108889
0.000108691
-0.000110102
1.89409e-06
0.000110039
-1.29772e-05
1.89964e-06
2.38115e-07
-0.000113424
-7.95515e-07
0.000113305
-1.50349e-06
-0.000113506
-7.28671e-07
3.66964e-07
0.00011341
6.94901e-07
2.35403e-07
-7.34039e-07
-1.63576e-06
-6.65404e-07
3.68523e-07
5.60966e-07