/*--------------------------------*- C++ -*----------------------------------*\
  =========                 |
  \\      /  F ield         | OpenFOAM: The Open Source CFD Toolbox
   \\    /   O peration     | Website:  https://openfoam.org
    \\  /    A nd           | Version:  9
     \\/     M anipulation  |
\*---------------------------------------------------------------------------*/
FoamFile
{
    format      ascii;
    class       volVectorField;
    location    "3.1";
    object      U;
}
// * * * * * * * * * * * * * * * * * * * * * * * * * * * * * * * * * * * * * //

dimensions      [0 1 -1 0 0 0 0];

internalField   nonuniform List<vector> 
36360
(
(0.0331935 -0.263111 -0.918241)
(-0.0255587 -0.192977 0.00240718)
(0.0339925 -0.292095 -0.94413)
(-0.0272437 -0.16515 0.00186211)
(0.0368249 -0.335654 -0.981356)
(-0.0301139 -0.145499 -0.00114219)
(0.0617379 -0.394901 -0.991653)
(-0.0389628 -0.10201 -0.000837449)
(0.00343456 -0.191707 -0.00149127)
(0.00619615 -0.197109 -0.000243832)
(0.0015203 -0.188127 -0.0013174)
(0.00425827 -0.196411 -0.000187184)
(0.0114912 -0.167367 0.00111388)
(0.00837189 -0.194656 9.60195e-05)
(0.0132898 -0.174242 0.00066124)
(0.0126702 -0.206233 3.94297e-06)
(0.00556015 -0.200323 -2.19057e-05)
(0.00556029 -0.200323 2.18635e-05)
(0.00379184 -0.199875 -1.07303e-05)
(0.00379167 -0.199875 1.07577e-05)
(0.00710836 -0.204627 -5.00899e-07)
(0.00710894 -0.20463 4.54917e-07)
(0.0116884 -0.215163 -1.20849e-05)
(0.0116881 -0.215165 1.20282e-05)
(0.00619691 -0.197108 0.000243744)
(0.00343867 -0.191703 0.00149086)
(0.00425821 -0.196411 0.000187097)
(0.00152335 -0.188126 0.00131684)
(0.00837356 -0.194665 -9.58574e-05)
(0.0114938 -0.167375 -0.00111298)
(0.01267 -0.206243 -3.88397e-06)
(0.0132922 -0.174257 -0.000660611)
(-0.0255464 -0.192963 -0.00240631)
(0.0331773 -0.263114 0.918291)
(-0.0272323 -0.165142 -0.00186103)
(0.033974 -0.292086 0.944179)
(-0.0300948 -0.145484 0.00114082)
(0.0368099 -0.335655 0.981366)
(-0.0389404 -0.102011 0.000836478)
(0.0617083 -0.394874 0.991663)
(0.0391909 -0.246979 -0.90231)
(-0.0314045 -0.201015 0.000592353)
(0.0376099 -0.256386 -0.910954)
(-0.0289239 -0.19621 0.00138042)
(0.0378113 -0.289652 -0.982055)
(-0.0398803 -0.167299 -0.00326443)
(0.0361738 -0.307139 -0.98417)
(-0.0362552 -0.153486 -0.0021401)
(-0.00090418 -0.192646 -0.000422572)
(0.0044121 -0.194793 0.000143063)
(0.00130383 -0.190902 -0.000781209)
(0.00574865 -0.195498 -5.1764e-05)
(0.00587017 -0.163195 0.00254311)
(0.0047872 -0.182025 0.000586121)
(0.00788819 -0.161363 0.0019253)
(0.00641102 -0.185666 0.000326787)
(0.00473711 -0.197434 3.47839e-05)
(0.00473747 -0.197434 -3.47739e-05)
(0.00555873 -0.19882 -1.15854e-06)
(0.00555905 -0.19882 1.12577e-06)
(0.00410292 -0.191736 6.89853e-05)
(0.00410331 -0.191737 -6.89542e-05)
(0.00534472 -0.196122 2.7567e-05)
(0.00534527 -0.196124 -2.7585e-05)
(0.00441371 -0.194792 -0.000142901)
(-0.000899587 -0.192641 0.000422557)
(0.00575006 -0.195497 5.18554e-05)
(0.00130861 -0.190898 0.000781143)
(0.00478848 -0.182029 -0.000585687)
(0.00587146 -0.163192 -0.00254205)
(0.00641271 -0.185672 -0.000326456)
(0.00789111 -0.161364 -0.00192422)
(-0.0313945 -0.201004 -0.000592828)
(0.0391785 -0.246982 0.902354)
(-0.0289124 -0.196198 -0.0013805)
(0.0375972 -0.256388 0.911)
(-0.0398667 -0.16728 0.00326208)
(0.0377979 -0.289657 0.982063)
(-0.0362382 -0.153468 0.00213815)
(0.0361616 -0.307141 0.984179)
(0.0391044 -0.232697 -0.887826)
(-0.0334732 -0.204441 -0.000527452)
(0.0393364 -0.238855 -0.894356)
(-0.0326074 -0.203321 -1.41652e-05)
(0.0365827 -0.257301 -0.978646)
(-0.0417676 -0.183712 -0.00510883)
(0.0372676 -0.271741 -0.980204)
(-0.0410422 -0.177072 -0.00425406)
(-0.00302072 -0.19532 -0.000200009)
(0.00225542 -0.194215 0.000484034)
(-0.0022402 -0.194098 -0.000256107)
(0.003179 -0.194317 0.000325903)
(0.0048878 -0.170102 0.00324258)
(0.00244915 -0.178399 0.00107692)
(0.00496249 -0.166493 0.00297355)
(0.00341269 -0.179569 0.000843782)
(0.0029873 -0.195315 0.000150625)
(0.00298758 -0.195315 -0.000150501)
(0.00381949 -0.196187 9.00987e-05)
(0.00381982 -0.196186 -9.00351e-05)
(0.00232563 -0.185317 0.000188642)
(0.00232595 -0.185318 -0.000188485)
(0.0031006 -0.188031 0.000125192)
(0.00310092 -0.188032 -0.000125115)
(0.00225647 -0.194213 -0.000483801)
(-0.00301779 -0.195314 0.000199855)
(0.00318042 -0.194315 -0.000325693)
(-0.00223642 -0.194093 0.000256038)
(0.0024499 -0.178398 -0.00107639)
(0.00488764 -0.170094 -0.00324182)
(0.00341379 -0.17957 -0.000843359)
(0.00496306 -0.166486 -0.00297257)
(-0.0334657 -0.204433 0.000526623)
(0.0390941 -0.2327 0.887864)
(-0.0325987 -0.203311 1.34536e-05)
(0.039326 -0.238858 0.894396)
(-0.0417577 -0.183694 0.0051062)
(0.0365725 -0.257308 0.978654)
(-0.0410305 -0.177054 0.00425155)
(0.0372574 -0.271748 0.980212)
(0.0387727 -0.224117 -0.876281)
(-0.0348593 -0.205268 -0.00131766)
(0.0388737 -0.227909 -0.881412)
(-0.0341982 -0.205002 -0.000958944)
(0.0358396 -0.237762 -0.975934)
(-0.0430623 -0.191296 -0.00645535)
(0.0360658 -0.246286 -0.977172)
(-0.0423729 -0.188247 -0.00583738)
(-0.00377447 -0.197379 -0.000263494)
(0.00120611 -0.194837 0.000697404)
(-0.00348313 -0.196409 -0.000211156)
(0.00162579 -0.194425 0.000607363)
(0.00535641 -0.177063 0.00347545)
(0.00160754 -0.178785 0.0014209)
(0.00509542 -0.173731 0.00339731)
(0.00188562 -0.178283 0.00126919)
(0.00175613 -0.194731 0.000247499)
(0.00175626 -0.19473 -0.00024731)
(0.00229896 -0.194846 0.000203426)
(0.00229916 -0.194845 -0.000203262)
(0.00115618 -0.18259 0.000307292)
(0.00115646 -0.18259 -0.000307065)
(0.00168848 -0.183566 0.000250949)
(0.00168881 -0.183566 -0.000250748)
(0.00120656 -0.194833 -0.000697202)
(-0.00377262 -0.197373 0.000263194)
(0.00162653 -0.194422 -0.000607139)
(-0.00348082 -0.196403 0.00021092)
(0.00160766 -0.178782 -0.00142042)
(0.00535575 -0.177053 -0.00347499)
(0.00188603 -0.178281 -0.00126868)
(0.00509491 -0.173722 -0.00339671)
(-0.0348534 -0.205262 0.00131676)
(0.038764 -0.224119 0.876315)
(-0.0341915 -0.204995 0.000958047)
(0.0388649 -0.227911 0.881447)
(-0.0430543 -0.191282 0.00645281)
(0.0358312 -0.237769 0.975941)
(-0.0423639 -0.188232 0.00583477)
(0.0360578 -0.246293 0.977179)
(0.0388166 -0.218711 -0.86696)
(-0.0359851 -0.205449 -0.00185983)
(0.0387495 -0.221107 -0.871047)
(-0.0354451 -0.205388 -0.0016139)
(0.0357399 -0.225823 -0.973741)
(-0.0443187 -0.194775 -0.0074154)
(0.035695 -0.231092 -0.974733)
(-0.0436722 -0.193355 -0.00697539)
(-0.00411082 -0.199047 -0.000424669)
(0.000757657 -0.196051 0.000794101)
(-0.00396756 -0.198252 -0.000338336)
(0.00092794 -0.195395 0.00075776)
(0.00580435 -0.182516 0.00349472)
(0.0014192 -0.180845 0.0016156)
(0.0056043 -0.17999 0.00350135)
(0.0014626 -0.179702 0.0015351)
(0.0010364 -0.195276 0.000309705)
(0.0010364 -0.195274 -0.000309512)
(0.00134256 -0.194898 0.00028288)
(0.00134261 -0.194897 -0.000282683)
(0.000429521 -0.182328 0.000394734)
(0.000429673 -0.182327 -0.000394494)
(0.000744788 -0.182226 0.000355403)
(0.000745012 -0.182225 -0.000355163)
(0.000757729 -0.196048 -0.000793964)
(-0.00410954 -0.199042 0.000424293)
(0.000928161 -0.195391 -0.00075759)
(-0.00396602 -0.198247 0.000337989)
(0.00141888 -0.18084 -0.00161523)
(0.00580368 -0.182506 -0.0034945)
(0.00146249 -0.179698 -0.00153467)
(0.00560362 -0.17998 -0.00350102)
(-0.0359801 -0.205444 0.00185897)
(0.0388092 -0.218713 0.86699)
(-0.0354396 -0.205382 0.001613)
(0.038742 -0.22111 0.871078)
(-0.0443121 -0.194765 0.00741308)
(0.0357328 -0.225829 0.973748)
(-0.0436648 -0.193344 0.00697295)
(0.0356884 -0.231098 0.97474)
(0.0390345 -0.215286 -0.859268)
(-0.0369019 -0.205571 -0.00223426)
(0.0389049 -0.216803 -0.862572)
(-0.0364562 -0.2055 -0.00206338)
(0.0359153 -0.218255 -0.971947)
(-0.0454107 -0.196495 -0.00810398)
(0.0357675 -0.221627 -0.972748)
(-0.0448441 -0.195769 -0.00778685)
(-0.00429952 -0.200476 -0.000602341)
(0.000586364 -0.197531 0.00081385)
(-0.00421722 -0.199784 -0.000513725)
(0.000650945 -0.196771 0.000810892)
(0.00608889 -0.186539 0.00342809)
(0.00147818 -0.183432 0.00170227)
(0.00596817 -0.18468 0.00346705)
(0.00143341 -0.18211 0.00166918)
(0.000647658 -0.196455 0.000340647)
(0.000647577 -0.196454 -0.00034048)
(0.000810954 -0.195809 0.000328378)
(0.000810908 -0.195808 -0.000328197)
(8.90082e-06 -0.183456 0.000448369)
(8.9213e-06 -0.183455 -0.000448147)
(0.00019245 -0.182764 0.000425388)
(0.000192542 -0.182763 -0.000425156)
(0.000586245 -0.197528 -0.000813777)
(-0.00429855 -0.200471 0.000601939)
(0.000650902 -0.196768 -0.00081079)
(-0.00421612 -0.199779 0.000513331)
(0.0014776 -0.183427 -0.001702)
(0.00608832 -0.18653 -0.00342802)
(0.00143295 -0.182106 -0.00166886)
(0.00596755 -0.184671 -0.00346691)
(-0.0368976 -0.205567 0.00223349)
(0.0390281 -0.215288 0.859295)
(-0.0364515 -0.205496 0.00206256)
(0.0388985 -0.216805 0.862599)
(-0.045405 -0.196487 0.00810191)
(0.0359092 -0.218259 0.971953)
(-0.0448379 -0.19576 0.00778466)
(0.0357619 -0.221632 0.972754)
(0.0392852 -0.21315 -0.852782)
(-0.0376412 -0.20583 -0.0024979)
(0.0391486 -0.214089 -0.855518)
(-0.0372854 -0.20568 -0.00237671)
(0.0361545 -0.213323 -0.970458)
(-0.0463114 -0.19753 -0.00860632)
(0.0359899 -0.215532 -0.971115)
(-0.045846 -0.19706 -0.0083737)
(-0.0044392 -0.201779 -0.000766794)
(0.000527477 -0.199105 0.000791767)
(-0.00436821 -0.201135 -0.000686537)
(0.000549946 -0.198312 0.000806175)
(0.00623932 -0.189561 0.00333399)
(0.00159892 -0.186071 0.00172494)
(0.00618215 -0.188146 0.00338213)
(0.00153855 -0.184761 0.00171931)
(0.000447908 -0.19796 0.000350185)
(0.000447796 -0.197959 -0.000350022)
(0.000531305 -0.19718 0.0003473)
(0.000531206 -0.197179 -0.000347142)
(-0.000230623 -0.185299 0.000475212)
(-0.000230681 -0.185297 -0.000474977)
(-0.00012796 -0.184319 0.000464519)
(-0.000127989 -0.184318 -0.000464299)
(0.000527294 -0.199102 -0.000791728)
(-0.00443836 -0.201775 0.000766397)
(0.000549787 -0.198309 -0.000806124)
(-0.00436731 -0.201131 0.000686133)
(0.00159829 -0.186067 -0.00172473)
(0.00623892 -0.189553 -0.003334)
(0.00153791 -0.184756 -0.00171909)
(0.00618168 -0.188138 -0.00338211)
(-0.0376375 -0.205827 0.00249723)
(0.0392795 -0.213151 0.852806)
(-0.0372814 -0.205676 0.00237598)
(0.0391431 -0.21409 0.855543)
(-0.0463065 -0.197524 0.00860447)
(0.0361489 -0.213327 0.970464)
(-0.0458406 -0.197053 0.00837175)
(0.035985 -0.215537 0.971121)
(0.0395135 -0.21188 -0.847223)
(-0.038225 -0.206257 -0.00268455)
(0.0393916 -0.212426 -0.849494)
(-0.0379416 -0.206024 -0.00259825)
(0.036375 -0.210072 -0.969207)
(-0.0470076 -0.198336 -0.00897821)
(0.036222 -0.21153 -0.969747)
(-0.0466391 -0.197946 -0.00880519)
(-0.00457537 -0.203033 -0.000909372)
(0.000484654 -0.200699 0.000749295)
(-0.00450565 -0.202412 -0.000840343)
(0.000505751 -0.199902 0.000771781)
(0.00634613 -0.191972 0.00323745)
(0.00170189 -0.188595 0.00171277)
(0.00629847 -0.190826 0.00328486)
(0.00165838 -0.18735 0.00172167)
(0.000344924 -0.199614 0.000348891)
(0.000344789 -0.199613 -0.000348702)
(0.000388059 -0.198776 0.000350266)
(0.000387939 -0.198775 -0.000350084)
(-0.000329178 -0.187463 0.000484049)
(-0.000329214 -0.187462 -0.000483792)
(-0.000293339 -0.186355 0.000481314)
(-0.000293378 -0.186354 -0.000481056)
(0.000484392 -0.200697 -0.000749237)
(-0.0045747 -0.20303 0.000909058)
(0.000505546 -0.199899 -0.000771743)
(-0.00450487 -0.202408 0.000839966)
(0.00170145 -0.18859 -0.00171253)
(0.00634577 -0.191966 -0.00323736)
(0.0016579 -0.187346 -0.00172145)
(0.00629808 -0.190819 -0.00328486)
(-0.0382218 -0.206255 0.00268402)
(0.0395084 -0.211881 0.847245)
(-0.037938 -0.206021 0.00259763)
(0.0393866 -0.212427 0.849517)
(-0.0470033 -0.198331 0.0089767)
(0.0363696 -0.210075 0.969211)
(-0.0466344 -0.19794 0.00880344)
(0.0362173 -0.211533 0.969751)
(0.0396761 -0.211216 -0.842362)
(-0.0386733 -0.206841 -0.00281999)
(0.0395921 -0.211484 -0.844266)
(-0.0384553 -0.206531 -0.00275655)
(0.0365411 -0.207945 -0.968137)
(-0.0475308 -0.199101 -0.00925664)
(0.0364147 -0.208893 -0.968586)
(-0.0472389 -0.198717 -0.00912614)
(-0.00470175 -0.204268 -0.00102837)
(0.000448797 -0.202294 0.000701613)
(-0.00463783 -0.20365 -0.000971096)
(0.000466671 -0.201497 0.000725417)
(0.00641678 -0.194011 0.00314808)
(0.00176645 -0.19098 0.00168469)
(0.00639098 -0.193026 0.00319118)
(0.00173774 -0.189804 0.00169966)
(0.000292497 -0.201319 0.000342124)
(0.000292299 -0.201319 -0.000341901)
(0.000314822 -0.200464 0.000345945)
(0.000314661 -0.200464 -0.000345749)
(-0.000346291 -0.189754 0.000482508)
(-0.000346354 -0.189752 -0.000482131)
(-0.000342152 -0.188601 0.000484103)
(-0.000342184 -0.1886 -0.000483853)
(0.000448392 -0.202292 -0.000701494)
(-0.00470105 -0.204265 0.00102823)
(0.000466344 -0.201495 -0.000725345)
(-0.00463723 -0.203648 0.000970842)
(0.00176577 -0.190976 -0.00168421)
(0.0064162 -0.194005 -0.00314739)
(0.00173725 -0.1898 -0.00169943)
(0.00639059 -0.19302 -0.00319107)
(-0.0386675 -0.206839 0.0028198)
(0.0396685 -0.211216 0.842382)
(-0.0384542 -0.206529 0.00275617)
(0.0395899 -0.211485 0.844287)
(-0.0475267 -0.199097 0.00925595)
(0.0365364 -0.207953 0.96814)
(-0.0472346 -0.198713 0.00912541)
(0.0364104 -0.208898 0.968589)
(0.0397316 -0.21099 -0.838018)
(-0.0389844 -0.207568 -0.00291889)
(0.0397095 -0.211057 -0.83967)
(-0.0388418 -0.207188 -0.00287219)
(0.0366328 -0.206611 -0.965228)
(-0.0479124 -0.19992 -0.00946502)
(0.0365428 -0.207199 -0.965604)
(-0.0476862 -0.199501 -0.00937251)
(-0.00481096 -0.205514 -0.00112421)
(0.000411672 -0.203877 0.000655295)
(-0.00475633 -0.204889 -0.00107795)
(0.000431064 -0.203087 0.000677968)
(0.00645423 -0.195845 0.00307059)
(0.00181565 -0.193232 0.00165114)
(0.00644318 -0.194947 0.00310902)
(0.00179261 -0.192122 0.0016686)
(0.000260648 -0.203032 0.000331552)
(0.000260644 -0.203031 -0.000331887)
(0.00027518 -0.202177 0.000336994)
(0.000275025 -0.202176 -0.00033696)
(-0.000344783 -0.192053 0.000475119)
(-0.000344752 -0.192052 -0.00047651)
(-0.000346345 -0.190907 0.000479453)
(-0.000346402 -0.190906 -0.000479547)
(0.000412019 -0.203875 -0.000655797)
(-0.00480978 -0.205513 0.00112345)
(0.000430843 -0.203086 -0.000678002)
(-0.00475512 -0.204886 0.00107776)
(0.00181539 -0.193229 -0.00165342)
(0.00645454 -0.195841 -0.00307506)
(0.00179194 -0.192118 -0.0016687)
(0.00644272 -0.194941 -0.00310902)
(-0.0390074 -0.207567 0.00291914)
(0.0397483 -0.210991 0.838038)
(-0.0388349 -0.207186 0.00287224)
(0.0396989 -0.211057 0.839689)
(-0.0479046 -0.199919 0.00949063)
(0.0366199 -0.206611 0.960044)
(-0.0476813 -0.199497 0.00937921)
(0.0365359 -0.207206 0.96404)
(0.0397289 -0.211089 -0.834122)
(-0.0392036 -0.208415 -0.00299201)
(0.0397211 -0.211005 -0.835548)
(-0.039092 -0.207978 -0.0029573)
(0.0366743 -0.205879 -0.964588)
(-0.0481806 -0.200823 -0.00961529)
(0.0366137 -0.206181 -0.966121)
(-0.0480096 -0.200362 -0.00954161)
(-0.00490261 -0.206781 -0.00120093)
(0.000376198 -0.20544 0.000613724)
(-0.00485621 -0.206146 -0.00116419)
(0.000393826 -0.204661 0.000633547)
(0.00646907 -0.197563 0.00300207)
(0.00184809 -0.195366 0.00161737)
(0.00646812 -0.196715 0.00303342)
(0.00183475 -0.194313 0.00163357)
(0.000238425 -0.204728 0.000320663)
(0.000238269 -0.204728 -0.000320656)
(0.000248693 -0.203883 0.000325861)
(0.000248733 -0.203883 -0.00032618)
(-0.00033819 -0.194305 0.000466234)
(-0.000338181 -0.194304 -0.000466877)
(-0.000341453 -0.193187 0.000470625)
(-0.000341382 -0.193186 -0.000472055)
(0.000375728 -0.205439 -0.000613593)
(-0.00490456 -0.206781 0.00120112)
(0.00039433 -0.20466 -0.000634026)
(-0.00485595 -0.206145 0.00116341)
(0.00184785 -0.195364 -0.00161794)
(0.00646879 -0.197561 -0.00300195)
(0.00183479 -0.19431 -0.00163604)
(0.00646882 -0.196712 -0.00303862)
(-0.0392436 -0.208415 0.00299233)
(0.0397743 -0.211089 0.834139)
(-0.0391339 -0.207978 0.00295749)
(0.0397596 -0.211006 0.835567)
(-0.0481759 -0.200826 0.00962658)
(0.0366763 -0.205861 0.964179)
(-0.0480014 -0.200364 0.00956943)
(0.036603 -0.206166 0.960806)
(0.0396994 -0.211431 -0.830533)
(-0.0393625 -0.209358 -0.00304532)
(0.0396761 -0.211234 -0.831808)
(-0.0392571 -0.208876 -0.0030194)
(0.0366531 -0.20555 -0.958215)
(-0.0483391 -0.201826 -0.00974565)
(0.0366213 -0.205674 -0.961006)
(-0.0482206 -0.201311 -0.00968149)
(-0.00497356 -0.208068 -0.00126017)
(0.000348139 -0.206982 0.000578731)
(-0.00493583 -0.207423 -0.00123154)
(0.00036176 -0.206214 0.000595316)
(0.00647272 -0.199219 0.00295002)
(0.0018651 -0.197403 0.0015885)
(0.00647619 -0.198396 0.00297381)
(0.00185843 -0.196395 0.00160199)
(0.000224246 -0.206395 0.000310693)
(0.000223901 -0.206395 -0.000310581)
(0.000230418 -0.205566 0.000315388)
(0.000230065 -0.205566 -0.000315306)
(-0.000330569 -0.196488 0.000457512)
(-0.000330627 -0.196488 -0.000458313)
(-0.000334095 -0.195406 0.000461612)
(-0.000334142 -0.195405 -0.000462452)
(0.000346746 -0.206982 -0.000578486)
(-0.00497917 -0.208067 0.00126017)
(0.000360264 -0.206214 -0.000594947)
(-0.0049411 -0.207422 0.00123205)
(0.00186438 -0.197402 -0.0015894)
(0.00647167 -0.199218 -0.00295118)
(0.00185787 -0.196394 -0.00160246)
(0.00647527 -0.198394 -0.00297264)
(-0.0394308 -0.209357 0.00304466)
(0.0397836 -0.21143 0.83055)
(-0.0393155 -0.208875 0.00301944)
(0.0397492 -0.211233 0.831824)
(-0.0483333 -0.201824 0.00975491)
(0.0366632 -0.205542 0.95821)
(-0.0482158 -0.201311 0.00968931)
(0.0366309 -0.205664 0.962225)
(0.0397361 -0.211938 -0.827272)
(-0.0395132 -0.210364 -0.00308424)
(0.0397127 -0.211667 -0.828342)
(-0.039441 -0.209856 -0.00306532)
(0.0366218 -0.20554 -0.959802)
(-0.0484167 -0.202895 -0.00982316)
(0.0365921 -0.20551 -0.960038)
(-0.0483305 -0.202353 -0.0097854)
(-0.00503713 -0.209359 -0.0013067)
(0.000327753 -0.208495 0.000549088)
(-0.00500649 -0.208714 -0.00128413)
(0.000336713 -0.207743 0.000563021)
(0.00646674 -0.200839 0.00290007)
(0.00187112 -0.199362 0.00156092)
(0.00647538 -0.200032 0.00292285)
(0.00186967 -0.198392 0.00157395)
(0.000218547 -0.20802 0.000301846)
(0.000218489 -0.208019 -0.000301359)
(0.000220115 -0.207214 0.000305958)
(0.000219905 -0.207213 -0.000305667)
(-0.000324208 -0.198595 0.000449173)
(-0.000324312 -0.198594 -0.000448605)
(-0.000326955 -0.197551 0.00045321)
(-0.000327031 -0.197551 -0.00045332)
(0.000328197 -0.208494 -0.000548515)
(-0.00503643 -0.209358 0.0013071)
(0.0003363 -0.207743 -0.000562715)
(-0.00500876 -0.208713 0.00128403)
(0.00186967 -0.199362 -0.00155974)
(0.00646421 -0.20084 -0.00289627)
(0.00186865 -0.198392 -0.00157416)
(0.00647371 -0.200034 -0.00292318)
(-0.0395466 -0.210363 0.00308349)
(0.03978 -0.211938 0.827287)
(-0.0394959 -0.209855 0.0030644)
(0.039781 -0.211667 0.828358)
(-0.0484173 -0.202892 0.00980861)
(0.0366403 -0.205539 0.965023)
(-0.0483269 -0.202353 0.00978568)
(0.036605 -0.205498 0.961425)
(0.0397528 -0.212555 -0.82417)
(-0.0396046 -0.211399 -0.00310991)
(0.0397455 -0.212237 -0.825154)
(-0.0395691 -0.21088 -0.00309694)
(0.0365436 -0.205721 -0.957155)
(-0.0484095 -0.204024 -0.00988665)
(0.0365342 -0.205611 -0.956885)
(-0.0483636 -0.203454 -0.00986418)
(-0.00506135 -0.210635 -0.00134082)
(0.000328646 -0.209961 0.000525201)
(-0.00505242 -0.210001 -0.0013237)
(0.000325391 -0.209235 0.000536569)
(0.0064569 -0.202434 0.00286333)
(0.00187093 -0.201246 0.00153848)
(0.00646708 -0.20164 0.00288269)
(0.00187209 -0.200314 0.00154999)
(0.000228189 -0.209585 0.000294215)
(0.000228243 -0.209584 -0.000294008)
(0.00022109 -0.208811 0.00029782)
(0.000221142 -0.208811 -0.000297337)
(-0.000318655 -0.200617 0.0004417)
(-0.000318737 -0.200616 -0.000441569)
(-0.000320997 -0.199617 0.00044566)
(-0.000321084 -0.199616 -0.00044475)
(0.000329824 -0.209961 -0.000525255)
(-0.00505652 -0.210634 0.00134007)
(0.0003264 -0.209235 -0.000536134)
(-0.005049 -0.209999 0.00132376)
(0.00186936 -0.201243 -0.00153879)
(0.00645484 -0.202429 -0.00286487)
(0.00187048 -0.200312 -0.0015486)
(0.00646457 -0.201637 -0.00287942)
(-0.0396085 -0.211398 0.00310828)
(0.0397556 -0.212556 0.824188)
(-0.0395741 -0.210878 0.00309577)
(0.0397556 -0.212236 0.82517)
(-0.048408 -0.20402 0.00988414)
(0.0365474 -0.205735 0.956676)
(-0.0483645 -0.203446 0.00984757)
(0.0365479 -0.205628 0.960766)
(0.0397295 -0.213224 -0.821277)
(-0.0395916 -0.21242 -0.00312663)
(0.0397207 -0.212887 -0.822121)
(-0.0395883 -0.211915 -0.00311758)
(0.0364584 -0.206056 -0.963123)
(-0.0483397 -0.205173 -0.00989474)
(0.0364567 -0.205866 -0.960561)
(-0.0483278 -0.204601 -0.00988754)
(-0.0050438 -0.211863 -0.00136676)
(0.000358947 -0.211354 0.000505538)
(-0.00505555 -0.211258 -0.00135393)
(0.000339782 -0.210669 0.000514524)
(0.00644228 -0.203973 0.00282199)
(0.00186646 -0.203037 0.00151597)
(0.00645429 -0.203212 0.00284052)
(0.00186937 -0.202154 0.00152597)
(0.000260778 -0.211064 0.000287813)
(0.000260314 -0.211064 -0.000287446)
(0.000240997 -0.210337 0.000290607)
(0.000240825 -0.210337 -0.000290451)
(-0.000315708 -0.202537 0.000434674)
(-0.000315875 -0.202537 -0.000434199)
(-0.000316487 -0.201591 0.000437625)
(-0.000316623 -0.20159 -0.000437818)
(0.000357689 -0.211354 -0.000505552)
(-0.00504496 -0.211863 0.00136556)
(0.000339889 -0.210668 -0.000514658)
(-0.00505299 -0.211257 0.0013531)
(0.00186502 -0.203036 -0.00151559)
(0.00644055 -0.203971 -0.00282188)
(0.00186769 -0.202152 -0.00152661)
(0.0064518 -0.203209 -0.00284211)
(-0.0396015 -0.21242 0.00312604)
(0.039746 -0.213226 0.820699)
(-0.0395966 -0.211914 0.00311629)
(0.0397304 -0.212889 0.822139)
(-0.0483304 -0.205173 0.00989089)
(0.0364559 -0.206053 0.963865)
(-0.0483262 -0.204601 0.00988873)
(0.0364613 -0.205869 0.960066)
(0.039773 -0.213895 -0.816813)
(-0.0395732 -0.213372 -0.00313583)
(0.0397341 -0.213562 -0.819291)
(-0.0395789 -0.212905 -0.00312985)
(0.0362591 -0.20643 -0.955269)
(-0.0481374 -0.206307 -0.00993169)
(0.0363529 -0.206246 -0.95873)
(-0.048226 -0.205744 -0.0099155)
(-0.00498405 -0.213003 -0.00138046)
(0.000430903 -0.212641 0.000491719)
(-0.00501738 -0.212446 -0.00137386)
(0.000389434 -0.212012 0.000497955)
(0.00643714 -0.205438 0.00280163)
(0.00186492 -0.20472 0.00150166)
(0.00643948 -0.204715 0.00281162)
(0.00186458 -0.203893 0.00150858)
(0.000328946 -0.212429 0.000283074)
(0.000328371 -0.212429 -0.00028231)
(0.000289606 -0.211762 0.000285153)
(0.000288999 -0.211762 -0.000284539)
(-0.000307136 -0.204329 0.000429975)
(-0.000307298 -0.204329 -0.000429484)
(-0.000314293 -0.203451 0.000432326)
(-0.000314447 -0.203451 -0.000431482)
(0.000428922 -0.212641 -0.000490646)
(-0.00498715 -0.213004 0.00138176)
(0.000387518 -0.212013 -0.000497617)
(-0.00501958 -0.212446 0.00137298)
(0.0018642 -0.20472 -0.00150033)
(0.00643676 -0.205439 -0.00279721)
(0.0018635 -0.203893 -0.00150752)
(0.0064381 -0.204716 -0.00281051)
(-0.0395934 -0.213366 0.00313392)
(0.0398074 -0.213906 0.818528)
(-0.0395851 -0.212901 0.00312888)
(0.0397502 -0.213571 0.818703)
(-0.0481105 -0.206314 0.00992001)
(0.0362469 -0.206418 0.959309)
(-0.048217 -0.205749 0.00990818)
(0.0363509 -0.206234 0.959482)
(0.0397989 -0.214449 -0.815103)
(-0.0394366 -0.214246 -0.00314043)
(0.0397569 -0.214191 -0.814871)
(-0.0394915 -0.213821 -0.00313794)
(0.0359907 -0.206842 -0.958689)
(-0.0478017 -0.207318 -0.0099141)
(0.0360714 -0.206625 -0.958846)
(-0.0479161 -0.206834 -0.00991996)
(-0.00486514 -0.214022 -0.00138922)
(0.000548841 -0.213791 0.000480928)
(-0.00492878 -0.213531 -0.00138479)
(0.000485555 -0.213236 0.000485742)
(0.00645301 -0.20677 0.00277265)
(0.00189101 -0.206258 0.00148515)
(0.00644811 -0.206126 0.00278346)
(0.00187197 -0.205511 0.00149259)
(0.000444466 -0.213644 0.000278758)
(0.000444392 -0.213644 -0.000278685)
(0.000380671 -0.213059 0.000280923)
(0.000380314 -0.213059 -0.000280458)
(-0.000258597 -0.205951 0.000424335)
(-0.000258712 -0.205952 -0.000425536)
(-0.00028905 -0.205164 0.000426973)
(-0.000289144 -0.205164 -0.000427696)
(0.00054896 -0.213791 -0.000480308)
(-0.00486635 -0.214023 0.00139034)
(0.000484272 -0.213237 -0.000484923)
(-0.00493398 -0.213532 0.00138585)
(0.00189063 -0.206259 -0.00148677)
(0.00645173 -0.20677 -0.00277418)
(0.00187159 -0.205511 -0.00149355)
(0.00644818 -0.206126 -0.00278511)
(-0.0395102 -0.214249 0.00313825)
(0.0398781 -0.214448 0.815298)
(-0.0395687 -0.21382 0.00313535)
(0.0398484 -0.214194 0.816613)
(-0.0477878 -0.207311 0.00992558)
(0.0359863 -0.206854 0.958728)
(-0.0478819 -0.206833 0.00992687)
(0.0360493 -0.206631 0.958879)
(0.0398901 -0.214871 -0.813372)
(-0.0392483 -0.214932 -0.00313741)
(0.0398154 -0.214668 -0.813186)
(-0.0393335 -0.214627 -0.00313679)
(0.035962 -0.207177 -0.961374)
(-0.0476186 -0.208185 -0.0098951)
(0.0359186 -0.207024 -0.957289)
(-0.0476541 -0.207769 -0.00990783)
(-0.00468425 -0.214846 -0.00139202)
(0.000705632 -0.214739 0.000474263)
(-0.00478026 -0.214465 -0.00139027)
(0.000623216 -0.214296 0.000477097)
(0.00646199 -0.207919 0.00275171)
(0.00197623 -0.207594 0.00147192)
(0.00646036 -0.20737 0.00276326)
(0.00192244 -0.206956 0.00147823)
(0.00061311 -0.214644 0.000274377)
(0.000613089 -0.214644 -0.000273936)
(0.000522087 -0.214176 0.000276775)
(0.000522207 -0.214176 -0.000276566)
(-0.000157443 -0.207363 0.000419686)
(-0.000157663 -0.207364 -0.000419409)
(-0.000212059 -0.206686 0.000421763)
(-0.000212122 -0.206686 -0.000422634)
(0.000706044 -0.214739 -0.000473896)
(-0.00468137 -0.214846 0.00139196)
(0.000624148 -0.214296 -0.000476627)
(-0.00477862 -0.214465 0.00139118)
(0.00197536 -0.207595 -0.00147191)
(0.00646 -0.207916 -0.00275304)
(0.00192208 -0.206957 -0.00147931)
(0.00645898 -0.207368 -0.00276343)
(-0.0392391 -0.214932 0.00313403)
(0.0398737 -0.214871 0.813008)
(-0.0393864 -0.21463 0.00313478)
(0.0398683 -0.214664 0.813383)
(-0.0476198 -0.20817 0.00989769)
(0.0359555 -0.207211 0.958862)
(-0.0476504 -0.207753 0.00991459)
(0.0359218 -0.207054 0.958995)
(0.0399983 -0.215075 -0.810978)
(-0.0389337 -0.215362 -0.00312974)
(0.0399281 -0.215015 -0.811542)
(-0.039101 -0.215171 -0.0031325)
(0.0357303 -0.207335 -0.957641)
(-0.0471819 -0.20885 -0.0098686)
(0.0357897 -0.207288 -0.957764)
(-0.0473459 -0.208547 -0.00988946)
(-0.00442324 -0.215402 -0.00138499)
(0.000924493 -0.215398 0.000471437)
(-0.00455991 -0.21516 -0.00138732)
(0.00080562 -0.215108 0.000472486)
(0.00650912 -0.208818 0.00273842)
(0.00210282 -0.208654 0.00146124)
(0.00648816 -0.208405 0.00274693)
(0.00203946 -0.208162 0.00146708)
(0.000846918 -0.215361 0.000269221)
(0.000846543 -0.215361 -0.000269469)
(0.000720832 -0.215041 0.000271488)
(0.000720578 -0.215042 -0.000271231)
(-3.03948e-05 -0.208511 0.000414909)
(-3.07029e-05 -0.208512 -0.000415776)
(-9.6386e-05 -0.207975 0.00041756)
(-9.67114e-05 -0.207975 -0.000417086)
(0.000923852 -0.2154 -0.000471989)
(-0.00441833 -0.215405 0.00138377)
(0.000805165 -0.215108 -0.000472256)
(-0.00455649 -0.21516 0.00138752)
(0.00210149 -0.208655 -0.00146289)
(0.00651214 -0.208815 -0.00274343)
(0.00203825 -0.208163 -0.00146622)
(0.00648809 -0.208402 -0.00274483)
(-0.0389216 -0.21537 0.00312971)
(0.0399716 -0.21507 0.809412)
(-0.0390616 -0.215173 0.00313093)
(0.0398784 -0.215016 0.811171)
(-0.0471556 -0.208837 0.00988361)
(0.0356924 -0.20736 0.953356)
(-0.0473355 -0.208541 0.00988516)
(0.0357706 -0.20731 0.957768)
(0.0402514 -0.214954 -0.80226)
(-0.0385723 -0.215471 -0.00312306)
(0.040117 -0.21505 -0.805941)
(-0.0387683 -0.215474 -0.00312542)
(0.0356439 -0.20724 -0.957292)
(-0.0467927 -0.209193 -0.00983815)
(0.0356441 -0.207331 -0.961595)
(-0.0469425 -0.209067 -0.00984628)
(-0.00407699 -0.215622 -0.00137138)
(0.00123043 -0.215713 0.000472834)
(-0.00426275 -0.215559 -0.00137801)
(0.00106553 -0.215602 0.000471499)
(0.00656895 -0.209395 0.00273011)
(0.00223842 -0.20938 0.0014536)
(0.00653989 -0.209149 0.00273018)
(0.00216867 -0.209061 0.00145636)
(0.0011667 -0.215728 0.000266208)
(0.00116612 -0.215729 -0.000266023)
(0.000995475 -0.215593 0.000267392)
(0.000994923 -0.215594 -0.000267351)
(0.000121494 -0.20932 0.00041177)
(0.000120674 -0.20932 -0.000411783)
(4.24519e-05 -0.208963 0.000413085)
(4.18159e-05 -0.208963 -0.00041347)
(0.00122939 -0.215714 -0.000472161)
(-0.00407225 -0.215625 0.0013741)
(0.00106463 -0.215604 -0.000471401)
(-0.00425524 -0.215564 0.00137852)
(0.002234 -0.209381 -0.00145308)
(0.00656104 -0.209397 -0.00272873)
(0.0021654 -0.209063 -0.00145691)
(0.00653663 -0.209149 -0.00273268)
(-0.0385059 -0.215477 0.00312018)
(0.0401776 -0.214959 0.807499)
(-0.038703 -0.215485 0.00312317)
(0.0400356 -0.215047 0.807551)
(-0.0468307 -0.209202 0.00982314)
(0.0356939 -0.207232 0.957087)
(-0.0469581 -0.209055 0.00985198)
(0.0356533 -0.207343 0.957194)
(0.040437 -0.214415 -0.80316)
(-0.037949 -0.215182 -0.00310542)
(0.0402895 -0.214755 -0.80357)
(-0.0382379 -0.215374 -0.0031118)
(0.0355143 -0.206726 -0.956598)
(-0.0462668 -0.209162 -0.0097752)
(0.0355017 -0.207042 -0.956901)
(-0.0464568 -0.209234 -0.0098035)
(-0.00359472 -0.215425 -0.00136103)
(0.00165967 -0.215603 0.000474325)
(-0.00384817 -0.215582 -0.00136569)
(0.00143012 -0.215717 0.000472956)
(0.00666967 -0.209558 0.00270746)
(0.00241283 -0.20969 0.00144497)
(0.00662061 -0.209541 0.00272133)
(0.0023208 -0.209595 0.00144842)
(0.00158982 -0.215666 0.000263276)
(0.00158965 -0.215667 -0.000264177)
(0.00136475 -0.215756 0.000264359)
(0.00136446 -0.215756 -0.000264993)
(0.000306803 -0.209705 0.000408298)
(0.000306758 -0.209706 -0.000409607)
(0.000209862 -0.209571 0.000409621)
(0.000209408 -0.209572 -0.000410974)
(0.00165892 -0.215604 -0.000475714)
(-0.00360094 -0.215424 0.00135814)
(0.0014298 -0.215717 -0.000473835)
(-0.00384737 -0.215581 0.00136471)
(0.00241233 -0.209692 -0.00144717)
(0.00667076 -0.209572 -0.00271231)
(0.00231814 -0.209595 -0.00145088)
(0.00661679 -0.209548 -0.00272812)
(-0.0379919 -0.21516 0.00310975)
(0.0404788 -0.214439 0.803742)
(-0.0382488 -0.215371 0.00311405)
(0.0402932 -0.214764 0.80567)
(-0.0462422 -0.209201 0.00979628)
(0.0354825 -0.206687 0.953089)
(-0.0464668 -0.209262 0.00981233)
(0.0355128 -0.207012 0.952288)
(0.0408836 -0.213381 -0.80079)
(-0.0373272 -0.214368 -0.00310092)
(0.0406187 -0.213964 -0.801129)
(-0.0376382 -0.21486 -0.00310154)
(0.0355079 -0.205724 -0.955925)
(-0.0457337 -0.208649 -0.00973329)
(0.0354375 -0.206307 -0.955259)
(-0.0459351 -0.208973 -0.00975514)
(-0.00299845 -0.214712 -0.00133994)
(0.00220542 -0.214976 0.000481744)
(-0.00330893 -0.215139 -0.00134922)
(0.00191768 -0.215359 0.000477468)
(0.00679616 -0.20922 0.00271005)
(0.0026189 -0.209486 0.00143973)
(0.00673062 -0.209462 0.00270366)