/*--------------------------------*- C++ -*----------------------------------*\
  =========                 |
  \\      /  F ield         | OpenFOAM: The Open Source CFD Toolbox
   \\    /   O peration     | Website:  https://openfoam.org
    \\  /    A nd           | Version:  9
     \\/     M anipulation  |
\*---------------------------------------------------------------------------*/
FoamFile
{
    format      ascii;
    class       volScalarField;
    location    "0.05";
    object      k;
}
// * * * * * * * * * * * * * * * * * * * * * * * * * * * * * * * * * * * * * //

dimensions      [0 2 -2 0 0 0 0];

internalField   nonuniform List<scalar> 
36360
(
0.00541177
0.00520482
0.00530685
0.00511679
0.00376464
0.00348859
0.00376488
0.00350729
0.00342821
0.00340809
0.0034503
0.00343184
0.00347346
0.00347324
0.00349363
0.00349339
0.00340795
0.00340795
0.00343171
0.00343171
0.00347323
0.00347323
0.00349338
0.00349338
0.00340809
0.00342821
0.00343184
0.0034503
0.00347324
0.00347346
0.00349339
0.00349363
0.00520482
0.00541177
0.00511679
0.00530685
0.00348859
0.00376464
0.00350729
0.00376488
0.00538886
0.00518365
0.00540377
0.00519798
0.00376206
0.00348769
0.00376341
0.00348784
0.00342724
0.00340746
0.00342747
0.00340747
0.00347287
0.00347268
0.0034729
0.0034727
0.00340732
0.00340732
0.00340733
0.00340733
0.00347268
0.00347268
0.0034727
0.0034727
0.00340746
0.00342724
0.00340747
0.00342747
0.00347268
0.00347287
0.0034727
0.0034729
0.00518365
0.00538886
0.00519798
0.00540377
0.00348769
0.00376206
0.00348784
0.00376341
0.00536095
0.00515702
0.00537498
0.00517039
0.00375942
0.00348741
0.00376074
0.00348756
0.00342684
0.00340746
0.00342704
0.00340746
0.00347282
0.00347264
0.00347284
0.00347266
0.00340732
0.00340732
0.00340732
0.00340732
0.00347264
0.00347264
0.00347266
0.00347266
0.00340746
0.00342683
0.00340746
0.00342704
0.00347264
0.00347282
0.00347266
0.00347284
0.00515701
0.00536095
0.00517039
0.00537498
0.00348741
0.00375942
0.00348756
0.00376074
0.00533345
0.00513104
0.00534705
0.00514387
0.00375686
0.00348709
0.00375813
0.00348725
0.00342643
0.00340746
0.00342663
0.00340746
0.00347276
0.00347258
0.00347279
0.00347261
0.00340732
0.00340732
0.00340732
0.00340732
0.00347258
0.00347258
0.00347261
0.00347261
0.00340746
0.00342643
0.00340746
0.00342663
0.00347258
0.00347276
0.00347261
0.00347279
0.00513104
0.00533345
0.00514386
0.00534705
0.00348709
0.00375686
0.00348725
0.00375813
0.00530672
0.00510578
0.00532008
0.00511838
0.00375436
0.00348675
0.00375561
0.00348692
0.00342603
0.00340745
0.00342623
0.00340746
0.00347268
0.0034725
0.00347272
0.00347254
0.00340732
0.00340732
0.00340732
0.00340732
0.0034725
0.0034725
0.00347254
0.00347254
0.00340745
0.00342603
0.00340746
0.00342623
0.0034725
0.00347268
0.00347254
0.00347272
0.00510578
0.00530672
0.00511838
0.00532008
0.00348675
0.00375436
0.00348692
0.00375561
0.00528062
0.00508138
0.00529351
0.00509341
0.00375192
0.00348639
0.00375313
0.00348657
0.00342565
0.00340745
0.00342584
0.00340745
0.00347257
0.0034724
0.00347263
0.00347245
0.00340732
0.00340732
0.00340732
0.00340732
0.0034724
0.0034724
0.00347245
0.00347245
0.00340745
0.00342565
0.00340745
0.00342584
0.0034724
0.00347257
0.00347245
0.00347263
0.00508138
0.00528062
0.00509341
0.00529351
0.00348639
0.00375192
0.00348657
0.00375313
0.0052553
0.00505777
0.00526793
0.00506952
0.00374953
0.00348601
0.00375072
0.0034862
0.00342528
0.00340745
0.00342546
0.00340745
0.00347245
0.00347227
0.00347251
0.00347234
0.00340732
0.00340732
0.00340732
0.00340732
0.00347227
0.00347227
0.00347234
0.00347234
0.00340745
0.00342528
0.00340745
0.00342546
0.00347227
0.00347245
0.00347234
0.00347251
0.00505777
0.0052553
0.00506952
0.00526793
0.00348601
0.00374953
0.0034862
0.00375072
0.0052305
0.00503493
0.00524277
0.00504621
0.0037472
0.00348562
0.00374835
0.00348582
0.00342492
0.00340745
0.0034251
0.00340745
0.0034723
0.00347212
0.00347237
0.0034722
0.00340733
0.00340733
0.00340733
0.00340733
0.00347212
0.00347212
0.0034722
0.0034722
0.00340745
0.00342492
0.00340745
0.0034251
0.00347212
0.0034723
0.0034722
0.00347237
0.00503493
0.0052305
0.00504621
0.00524277
0.00348562
0.0037472
0.00348582
0.00374835
0.00520641
0.00501289
0.0052184
0.00502383
0.0037449
0.00348521
0.00374605
0.00348542
0.00342458
0.00340745
0.00342475
0.00340745
0.00347211
0.00347195
0.00347221
0.00347204
0.00340733
0.00340733
0.00340733
0.00340733
0.00347195
0.00347195
0.00347204
0.00347204
0.00340745
0.00342458
0.00340745
0.00342475
0.00347195
0.00347211
0.00347204
0.00347221
0.00501289
0.00520641
0.00502383
0.0052184
0.00348521
0.0037449
0.00348542
0.00374605
0.00518289
0.00499161
0.00519459
0.00500217
0.00374267
0.00348478
0.00374378
0.003485
0.00342425
0.00340745
0.00342441
0.00340745
0.0034719
0.00347174
0.00347201
0.00347185
0.00340733
0.00340733
0.00340733
0.00340733
0.00347174
0.00347174
0.00347185
0.00347185
0.00340745
0.00342425
0.00340745
0.00342441
0.00347174
0.0034719
0.00347185
0.00347201
0.00499161
0.00518289
0.00500217
0.00519459
0.00348478
0.00374267
0.003485
0.00374378
0.00515986
0.00497103
0.0051713
0.00498122
0.00374048
0.00348432
0.00374157
0.00348455
0.00342393
0.00340745
0.00342409
0.00340745
0.00347166
0.0034715
0.00347179
0.00347162
0.00340733
0.00340733
0.00340733
0.00340733
0.0034715
0.0034715
0.00347162
0.00347162
0.00340745
0.00342393
0.00340745
0.00342409
0.0034715
0.00347166
0.00347162
0.00347179
0.00497103
0.00515986
0.00498122
0.0051713
0.00348432
0.00374048
0.00348455
0.00374157
0.00513732
0.00495116
0.00514852
0.004961
0.00373834
0.00348383
0.0037394
0.00348408
0.00342363
0.00340745
0.00342378
0.00340745
0.00347137
0.00347122
0.00347152
0.00347136
0.00340733
0.00340733
0.00340733
0.00340733
0.00347122
0.00347122
0.00347136
0.00347136
0.00340745
0.00342363
0.00340745
0.00342378
0.00347122
0.00347137
0.00347136
0.00347152
0.00495116
0.00513732
0.00496099
0.00514852
0.00348383
0.00373834
0.00348408
0.0037394
0.00511526
0.00493201
0.00512623
0.00494149
0.00373625
0.0034833
0.00373729
0.00348357
0.00342334
0.00340745
0.00342348
0.00340745
0.00347105
0.00347089
0.00347122
0.00347106
0.00340734
0.00340734
0.00340733
0.00340733
0.00347089
0.00347089
0.00347106
0.00347106
0.00340745
0.00342334
0.00340745
0.00342348
0.00347089
0.00347105
0.00347106
0.00347122
0.00493201
0.00511527
0.00494149
0.00512623
0.0034833
0.00373625
0.00348357
0.00373729
0.00509364
0.00491355
0.00510439
0.00492268
0.0037342
0.00348274
0.00373522
0.00348303
0.00342306
0.00340745
0.0034232
0.00340745
0.00347068
0.00347053
0.00347087
0.00347072
0.00340734
0.00340734
0.00340734
0.00340734
0.00347053
0.00347053
0.00347072
0.00347072
0.00340745
0.00342306
0.00340745
0.0034232
0.00347053
0.00347068
0.00347072
0.00347087
0.00491355
0.00509364
0.00492268
0.00510439
0.00348274
0.0037342
0.00348303
0.00373522
0.00507241
0.00489577
0.00508297
0.00490457
0.00373219
0.00348214
0.00373319
0.00348245
0.00342279
0.00340745
0.00342292
0.00340745
0.00347026
0.00347011
0.00347047
0.00347032
0.00340734
0.00340734
0.00340734
0.00340734
0.00347011
0.00347011
0.00347032
0.00347032
0.00340745
0.00342279
0.00340745
0.00342292
0.00347011
0.00347026
0.00347032
0.00347047
0.00489577
0.00507241
0.00490456
0.00508297
0.00348214
0.00373219
0.00348245
0.00373319
0.00505156
0.00487867
0.00506193
0.00488713
0.00373024
0.00348149
0.00373121
0.00348182
0.00342253
0.00340745
0.00342266
0.00340745
0.00346978
0.00346964
0.00347003
0.00346988
0.00340735
0.00340735
0.00340734
0.00340734
0.00346963
0.00346963
0.00346988
0.00346988
0.00340745
0.00342253
0.00340745
0.00342266
0.00346964
0.00346978
0.00346988
0.00347003
0.00487867
0.00505156
0.00488713
0.00506193
0.00348149
0.00373024
0.00348182
0.00373121
0.00503106
0.00486224
0.00504126
0.00487036
0.00372832
0.00348079
0.00372927
0.00348114
0.00342229
0.00340745
0.00342241
0.00340745
0.00346925
0.0034691
0.00346952
0.00346938
0.00340735
0.00340735
0.00340735
0.00340735
0.0034691
0.0034691
0.00346938
0.00346938
0.00340745
0.00342229
0.00340745
0.00342241
0.0034691
0.00346925
0.00346938
0.00346952
0.00486223
0.00503106
0.00487036
0.00504126
0.00348079
0.00372832
0.00348114
0.00372927
0.00501088
0.00484645
0.00502092
0.00485425
0.00372645
0.00348003
0.00372738
0.00348041
0.00342205
0.00340746
0.00342217
0.00340746
0.00346865
0.00346851
0.00346896
0.00346881
0.00340736
0.00340736
0.00340735
0.00340735
0.00346851
0.00346851
0.00346881
0.00346881
0.00340746
0.00342205
0.00340746
0.00342217
0.00346851
0.00346865
0.00346881
0.00346896
0.00484645
0.00501088
0.00485425
0.00502092
0.00348003
0.00372645
0.00348041
0.00372738
0.00499101
0.00483131
0.0050009
0.00483879
0.00372463
0.00347921
0.00372554
0.00347963
0.00342183
0.00340746
0.00342194
0.00340746
0.00346798
0.00346785
0.00346833
0.00346819
0.00340736
0.00340736
0.00340736
0.00340736
0.00346784
0.00346784
0.00346818
0.00346818
0.00340746
0.00342183
0.00340746
0.00342194
0.00346785
0.00346798
0.00346819
0.00346833
0.00483131
0.00499101
0.00483879
0.0050009
0.00347921
0.00372463
0.00347963
0.00372553
0.00497143
0.00481681
0.00498117
0.00482397
0.00372285
0.00347833
0.00372373
0.00347878
0.00342162
0.00340747
0.00342173
0.00340747
0.00346725
0.00346711
0.00346763
0.00346749
0.00340737
0.00340737
0.00340737
0.00340737
0.00346711
0.00346711
0.00346749
0.00346749
0.00340747
0.00342162
0.00340747
0.00342173
0.00346711
0.00346725
0.00346749
0.00346763
0.00481681
0.00497143
0.00482397
0.00498117
0.00347833
0.00372285
0.00347878
0.00372373
0.00495214
0.00480295
0.00496173
0.00480979
0.00372112
0.00347738
0.00372198
0.00347786
0.00342142
0.00340748
0.00342152
0.00340747
0.00346644
0.0034663
0.00346685
0.00346672
0.00340738
0.00340738
0.00340738
0.00340738
0.0034663
0.0034663
0.00346671
0.00346671
0.00340748
0.00342142
0.00340747
0.00342152
0.0034663
0.00346644
0.00346672
0.00346685
0.00480295
0.00495214
0.00480979
0.00496173
0.00347738
0.00372112
0.00347786
0.00372198
0.00493314
0.00478971
0.00494259
0.00479624
0.00371944
0.00347636
0.00372027
0.00347688
0.00342123
0.00340749
0.00342133
0.00340748
0.00346555
0.00346541
0.003466
0.00346587
0.00340739
0.00340739
0.00340739
0.00340739
0.00346541
0.00346541
0.00346587
0.00346587
0.00340748
0.00342123
0.00340748
0.00342133
0.00346541
0.00346555
0.00346587
0.003466
0.00478971
0.00493314
0.00479624
0.00494259
0.00347636
0.00371944
0.00347688
0.00372027
0.00491445
0.00477711
0.00492375
0.00478332
0.0037178
0.00347526
0.00371861
0.00347582
0.00342106
0.0034075
0.00342114
0.00340749
0.00346457
0.00346444
0.00346507
0.00346494
0.0034074
0.0034074
0.0034074
0.0034074
0.00346444
0.00346444
0.00346494
0.00346494
0.0034075
0.00342106
0.00340749
0.00342114
0.00346444
0.00346457
0.00346494
0.00346507
0.0047771
0.00491445
0.00478332
0.00492375
0.00347526
0.0037178
0.00347582
0.00371861
0.00489609
0.00476512
0.00490522
0.00477102
0.00371622
0.00347409
0.003717
0.00347469
0.00342089
0.00340751
0.00342097
0.0034075
0.00346352
0.00346339
0.00346406
0.00346393
0.00340742
0.00340742
0.00340741
0.00340741
0.00346339
0.00346339
0.00346393
0.00346393
0.00340751
0.00342089
0.0034075
0.00342097
0.00346339
0.00346352
0.00346393
0.00346406
0.00476512
0.00489609
0.00477102
0.00490522
0.00347409
0.00371622
0.00347469
0.003717
0.00487808
0.00475375
0.00488702
0.00475934
0.00371468
0.00347285
0.00371544
0.00347348
0.00342074
0.00340752
0.00342081
0.00340751
0.00346238
0.00346226
0.00346296
0.00346283
0.00340743
0.00340743
0.00340742
0.00340742
0.00346226
0.00346226
0.00346283
0.00346283
0.00340752
0.00342074
0.00340751
0.00342081
0.00346226
0.00346238
0.00346283
0.00346296
0.00475375
0.00487808
0.00475934
0.00488702
0.00347285
0.00371468
0.00347348
0.00371544
0.00486045
0.00474299
0.0048692
0.00474828
0.0037132
0.00347152
0.00371393
0.00347219
0.00342059
0.00340753
0.00342066
0.00340753
0.00346116
0.00346104
0.00346178
0.00346166
0.00340745
0.00340745
0.00340744
0.00340744
0.00346104
0.00346104
0.00346166
0.00346166
0.00340753
0.00342059
0.00340753
0.00342066
0.00346104
0.00346116
0.00346166
0.00346178
0.00474299
0.00486045
0.00474828
0.0048692
0.00347152
0.0037132
0.00347219
0.00371393
0.00484325
0.00473285
0.00485178
0.00473783
0.00371177
0.00347012
0.00371248
0.00347083
0.00342046
0.00340755
0.00342052
0.00340754
0.00345986
0.00345973
0.00346052
0.0034604
0.00340746
0.00340746
0.00340746
0.00340746
0.00345973
0.00345973
0.00346039
0.00346039
0.00340755
0.00342046
0.00340754
0.00342052
0.00345973
0.00345986
0.0034604
0.00346052
0.00473284
0.00484325
0.00473783
0.00485178
0.00347012
0.00371177
0.00347083
0.00371248
0.00482652
0.0047233
0.00483481
0.00472798
0.00371041
0.00346865
0.00371108
0.00346939
0.00342033
0.00340757
0.00342039
0.00340756
0.00345847
0.00345835
0.00345917
0.00345905
0.00340748
0.00340748
0.00340747
0.00340747
0.00345835
0.00345835
0.00345905
0.00345905
0.00340757
0.00342033
0.00340756
0.00342039
0.00345835
0.00345847
0.00345905
0.00345917
0.0047233
0.00482652
0.00472798
0.00483481
0.00346865
0.00371041
0.00346939
0.00371108
0.00481033
0.00471435
0.00481834
0.00471874
0.0037091
0.0034671
0.00370974
0.00346788
0.00342022
0.00340758
0.00342028
0.00340758
0.00345701
0.00345689
0.00345775
0.00345763
0.0034075
0.0034075
0.00340749
0.00340749
0.00345689
0.00345689
0.00345763
0.00345763
0.00340758
0.00342022
0.00340758
0.00342028
0.00345689
0.00345701
0.00345763
0.00345775
0.00471435
0.00481033
0.00471874
0.00481834
0.0034671
0.0037091
0.00346788
0.00370974
0.00479472
0.004706
0.00480243
0.00471009
0.00370785
0.00346549
0.00370846
0.0034663
0.00342012
0.0034076
0.00342017
0.00340759
0.00345547
0.00345535
0.00345625
0.00345613
0.00340752
0.00340752
0.00340751
0.00340751
0.00345535
0.00345535
0.00345613
0.00345613
0.0034076
0.00342012
0.00340759
0.00342017
0.00345535
0.00345547
0.00345613
0.00345625
0.00470599
0.00479472
0.00471009
0.00480243
0.00346549
0.00370785
0.0034663
0.00370846
0.00477975
0.00469822
0.00478713
0.00470202
0.00370667
0.00346381
0.00370725
0.00346466
0.00342002
0.00340762
0.00342007
0.00340761
0.00345386
0.00345374
0.00345467
0.00345455
0.00340754
0.00340754
0.00340753
0.00340753
0.00345374
0.00345374
0.00345455
0.00345455
0.00340762
0.00342002
0.00340761
0.00342007
0.00345374
0.00345386
0.00345455
0.00345467
0.00469822
0.00477975
0.00470202
0.00478713
0.00346381
0.00370667
0.00346466
0.00370725
0.00476548
0.00469102
0.00477251
0.00469453
0.00370555
0.00346208
0.0037061
0.00346295
0.00341994
0.00340764
0.00341998
0.00340763
0.00345218
0.00345207
0.00345303
0.00345291
0.00340756
0.00340756
0.00340755
0.00340755
0.00345207
0.00345207
0.00345291
0.00345291
0.00340764
0.00341994
0.00340763
0.00341998
0.00345207
0.00345218
0.00345291
0.00345303
0.00469102
0.00476548
0.00469453
0.00477251
0.00346208
0.00370555
0.00346295
0.0037061
0.00475197
0.00468438
0.00475861
0.00468761
0.00370451
0.00346029
0.00370502
0.00346119
0.00341986
0.00340766
0.0034199
0.00340765
0.00345045
0.00345034
0.00345133
0.00345121
0.00340758
0.00340758
0.00340757
0.00340757
0.00345033
0.00345033
0.00345121
0.00345121
0.00340766
0.00341986
0.00340765
0.00341989
0.00345034
0.00345045
0.00345121
0.00345133
0.00468438
0.00475197
0.00468761
0.00475861
0.00346029
0.00370451
0.00346119
0.00370502
0.00473926
0.00467829
0.00474549
0.00468125
0.00370353
0.00345845
0.00370401
0.00345938
0.00341979
0.00340768
0.00341982
0.00340767
0.00344867
0.00344855
0.00344956
0.00344945
0.0034076
0.0034076
0.00340759
0.00340759
0.00344855
0.00344855
0.00344945
0.00344945
0.00340768
0.00341979
0.00340767
0.00341982
0.00344855
0.00344867
0.00344945
0.00344956
0.00467829
0.00473926
0.00468125
0.00474549
0.00345845
0.00370353
0.00345938
0.00370401
0.00472741
0.00467275
0.00473321
0.00467544
0.00370263
0.00345658
0.00370307
0.00345752
0.00341972
0.00340769
0.00341975
0.00340768
0.00344684
0.00344672
0.00344776
0.00344764
0.00340761
0.00340761
0.0034076
0.0034076
0.00344672
0.00344672
0.00344764
0.00344764
0.00340769
0.00341972
0.00340768
0.00341975
0.00344672
0.00344684
0.00344764
0.00344776
0.00467275
0.00472741
0.00467544
0.00473321
0.00345658
0.00370263
0.00345752
0.00370307
0.00471646
0.00466773
0.00472181
0.00467015
0.0037018
0.00345468
0.0037022
0.00345563
0.00341966
0.00340771
0.00341969
0.0034077
0.00344497
0.00344485
0.00344591
0.00344579
0.00340763
0.00340763
0.00340762
0.00340762
0.00344485
0.00344485
0.00344579
0.00344579
0.00340771
0.00341966
0.0034077
0.00341969
0.00344485
0.00344497
0.00344579
0.00344591
0.00466772
0.00471646
0.00467015
0.00472181
0.00345468
0.0037018
0.00345563
0.0037022
0.00470644
0.00466322
0.00471131
0.00466539
0.00370104
0.00345275
0.00370141
0.00345371
0.00341961
0.00340772
0.00341964
0.00340771
0.00344307
0.00344296
0.00344402
0.00344391
0.00340764
0.00340764
0.00340763
0.00340763
0.00344296
0.00344296
0.00344391
0.00344391
0.00340772
0.00341961
0.00340771
0.00341964
0.00344296
0.00344307
0.00344391
0.00344402
0.00466322
0.00470644
0.00466539
0.00471131
0.00345275
0.00370104
0.00345371
0.00370141
0.00469739
0.0046592
0.00470177
0.00466113
0.00370036
0.0034508
0.00370069
0.00345177
0.00341956
0.00340773
0.00341959
0.00340772
0.00344115
0.00344104
0.00344211
0.003442
0.00340765
0.00340765
0.00340765
0.00340765
0.00344104
0.00344104
0.003442
0.003442
0.00340773
0.00341956
0.00340772
0.00341959
0.00344104
0.00344115
0.003442
0.00344211
0.0046592
0.00469739
0.00466113
0.00470177
0.0034508
0.00370036
0.00345177
0.00370069
0.00469554
0.00465343
0.00469322
0.00465737
0.00369955
0.00344883
0.00370005
0.00344982
0.0034195
0.00340774
0.00341954
0.00340773
0.00343922
0.0034391
0.00344018
0.00344007
0.00340766
0.00340766
0.00340765
0.00340765
0.0034391
0.0034391
0.00344007
0.00344007
0.00340774
0.0034195
0.00340773
0.00341954
0.0034391
0.00343922
0.00344007
0.00344018
0.00465343
0.00469554
0.00465737
0.00469322
0.00344883
0.00369955
0.00344982
0.00370005
0.00542302
0.00521749
0.00531769
0.00512724
0.00542231
0.00521678
0.00531757
0.00512636
0.00342793
0.00340763
0.00345005
0.00343143
0.00342793
0.00340763
0.00345004
0.00343143
0.00340749
0.00340749
0.0034313
0.0034313
0.00340749
0.00340749
0.0034313
0.0034313
0.00340763
0.00342793
0.00343143
0.00345005
0.00340763
0.00342793
0.00343143
0.00345004
0.00521749
0.00542302
0.00512724
0.00531769
0.00521678
0.00542231
0.00512636
0.00531757
0.0054
0.00519557
0.00541493
0.00521004
0.0053991
0.00519457
0.00541412
0.00520913
0.00342695
0.003407
0.00342718
0.00340701
0.00342694
0.003407
0.00342718
0.00340701
0.00340685
0.00340685
0.00340687
0.00340687
0.00340686
0.00340686
0.00340687
0.00340687
0.003407
0.00342695
0.00340701
0.00342718
0.003407
0.00342694
0.00340701
0.00342718
0.00519557
0.0054
0.00521004
0.00541493
0.00519457
0.0053991
0.00520913
0.00541412
0.0053719
0.00516862
0.00538608
0.00518218
0.00537094
0.00516764
0.00538508
0.00518114
0.00342652
0.00340699
0.00342673
0.00340699
0.00342651
0.00340699
0.00342672
0.003407
0.00340685
0.00340685
0.00340685
0.00340685
0.00340686
0.00340686
0.00340686
0.00340686
0.00340699
0.00342652
0.00340699
0.00342673
0.00340699
0.00342651
0.003407
0.00342672
0.00516862
0.0053719
0.00518218
0.00538608
0.00516764
0.00537094
0.00518114
0.00538508
0.0053442
0.0051424
0.00535787
0.00515534
0.00534306
0.00514128
0.00535685
0.00515429
0.00342611
0.00340699
0.00342632
0.00340699
0.00342609
0.00340699
0.0034263
0.00340699
0.00340685
0.00340685
0.00340685
0.00340685
0.00340686
0.00340686
0.00340686
0.00340686
0.00340699
0.00342611
0.00340699
0.00342632
0.00340699
0.00342609
0.00340699
0.0034263
0.0051424
0.0053442
0.00515534
0.00535787
0.00514128
0.00534306
0.00515429
0.00535685
0.00531723
0.00511687
0.0053307
0.00512959
0.0053161
0.0051158
0.00532955
0.00512851
0.00342571
0.00340699
0.00342591
0.00340699
0.00342569
0.00340699
0.00342589
0.00340699
0.00340685
0.00340685
0.00340685
0.00340685
0.00340686
0.00340686
0.00340686
0.00340686
0.00340699
0.00342571
0.00340699
0.00342591
0.00340699
0.00342569
0.00340699
0.00342589
0.00511687
0.00531723
0.00512959
0.0053307
0.0051158
0.0053161
0.00512851
0.00532955
0.00529086
0.00509219
0.00530388
0.00510435
0.00528971
0.00509115
0.0053027
0.00510326
0.00342532
0.00340698
0.00342552
0.00340698
0.00342531
0.00340699
0.0034255
0.00340699
0.00340685
0.00340685
0.00340685
0.00340685
0.00340686
0.00340686
0.00340686
0.00340686
0.00340698
0.00342532
0.00340698
0.00342552
0.00340699
0.00342531
0.00340699
0.0034255
0.00509219
0.00529086
0.00510435
0.00530388
0.00509115
0.00528971
0.00510326
0.0053027
0.0052653
0.00506833
0.00527806
0.00508021
0.00526409
0.00506723
0.0052769
0.00507916
0.00342495
0.00340698
0.00342513
0.00340698
0.00342493
0.00340698
0.00342512
0.00340698
0.00340685
0.00340685
0.00340685
0.00340685
0.00340686
0.00340686
0.00340686
0.00340686
0.00340698
0.00342495
0.00340698
0.00342513
0.00340698
0.00342493
0.00340698
0.00342512
0.00506833
0.0052653
0.00508021
0.00527806
0.00506723
0.00526409
0.00507916
0.0052769
0.00524034
0.00504529
0.0052527
0.00505668
0.00523906
0.00504419
0.00525141
0.00505554
0.00342459
0.00340698
0.00342477
0.00340698
0.00342457
0.00340698
0.00342475
0.00340698
0.00340685
0.00340685
0.00340685
0.00340685
0.00340686
0.00340686
0.00340686
0.00340686
0.00340698
0.00342459
0.00340698
0.00342477
0.00340698
0.00342457
0.00340698
0.00342475
0.00504529
0.00524034
0.00505668
0.0052527
0.00504419
0.00523906
0.00505554
0.00525141
0.00521601
0.00502297
0.00522814
0.00503407
0.00521476
0.00502191
0.00522689
0.005033
0.00342424
0.00340698
0.00342441
0.00340698
0.00342423
0.00340698
0.0034244
0.00340698
0.00340685
0.00340685
0.00340685
0.00340685
0.00340686
0.00340686
0.00340686
0.00340686
0.00340698
0.00342424
0.00340698
0.00342441
0.00340698
0.00342423
0.00340698
0.0034244
0.00502297
0.00521601
0.00503407
0.00522814
0.00502191
0.00521476
0.005033
0.00522689
0.00519225
0.00500146
0.00520402
0.00501209
0.00519093
0.00500038
0.00520272
0.005011
0.00342391
0.00340697
0.00342407
0.00340697
0.0034239
0.00340698
0.00342406
0.00340698
0.00340685
0.00340685
0.00340685
0.00340685
0.00340686
0.00340686
0.00340686
0.00340686
0.00340697
0.00342391
0.00340697
0.00342407
0.00340698
0.0034239
0.00340698
0.00342406
0.00500146
0.00519225
0.00501209
0.00520402
0.00500038
0.00519093
0.005011
0.00520272
0.0051691
0.0049807
0.00518062
0.004991
0.00516776
0.00497964
0.0051793
0.00498993
0.00342359
0.00340697
0.00342374
0.00340697
0.00342358
0.00340697
0.00342374
0.00340697
0.00340686
0.00340686
0.00340686
0.00340686
0.00340686
0.00340686
0.00340686
0.00340686
0.00340697
0.00342359
0.00340697
0.00342374
0.00340697
0.00342358
0.00340697
0.00342374
0.0049807
0.0051691
0.004991
0.00518062
0.00497964
0.00516776
0.00498993
0.0051793
0.0051464
0.00496063
0.00515768
0.00497056
0.00514508
0.00495962
0.00515636
0.00496955
0.00342328
0.00340697
0.00342343
0.00340697
0.00342327
0.00340697
0.00342342
0.00340697
0.00340686
0.00340686
0.00340686
0.00340686
0.00340686
0.00340686
0.00340686
0.00340686
0.00340697
0.00342328
0.00340697
0.00342343
0.00340697
0.00342327
0.00340697
0.00342342
0.00496063
0.0051464
0.00497056
0.00515768
0.00495962
0.00514508
0.00496955
0.00515636
0.00512418
0.00494127
0.00513522
0.00495085
0.00512285
0.00494029
0.0051339
0.00494986
0.00342298
0.00340697
0.00342313
0.00340697
0.00342297
0.00340697
0.00342312
0.00340697
0.00340686
0.00340686
0.00340686
0.00340686
0.00340686
0.00340686
0.00340686
0.00340686
0.00340697
0.00342298
0.00340697
0.00342313
0.00340697
0.00342297
0.00340697
0.00342312
0.00494127
0.00512418
0.00495085
0.00513522
0.00494029
0.00512285
0.00494986
0.0051339
0.00510241
0.00492262
0.00511323
0.00493185
0.00510107
0.00492167
0.00511189
0.00493088
0.0034227
0.00340697
0.00342284
0.00340697
0.00342269
0.00340697
0.00342283
0.00340697
0.00340686
0.00340686
0.00340686
0.00340686
0.00340686
0.00340686
0.00340686
0.00340686
0.00340697
0.0034227
0.00340697
0.00342284
0.00340697
0.00342269
0.00340697
0.00342283
0.00492262
0.00510241
0.00493185
0.00511323
0.00492167
0.00510107
0.00493088
0.00511189
0.00508106
0.00490467
0.00509168
0.00491355
0.0050797
0.00490375
0.00509032
0.00491261
0.00342243
0.00340697
0.00342256
0.00340697
0.00342242
0.00340697
0.00342255
0.00340697
0.00340686
0.00340686
0.00340686
0.00340686
0.00340686
0.00340686
0.00340686
0.00340686
0.00340697
0.00342243
0.00340697
0.00342256
0.00340697
0.00342242
0.00340697
0.00342255
0.00490467
0.00508106
0.00491355
0.00509168
0.00490375
0.0050797
0.00491261
0.00509032
0.0050601
0.0048874
0.00507053
0.00489594
0.00505873
0.00488652
0.00506916
0.00489504
0.00342217
0.00340697
0.00342229
0.00340697
0.00342216
0.00340697
0.00342229
0.00340697
0.00340686
0.00340686
0.00340686
0.00340686
0.00340687
0.00340687
0.00340686
0.00340686
0.00340697
0.00342217
0.00340697
0.00342229
0.00340697
0.00342216
0.00340697
0.00342229
0.0048874
0.0050601
0.00489594
0.00507053
0.00488652
0.00505873
0.00489504
0.00506916
0.00503951
0.00487081
0.00504975
0.00487901
0.00503812
0.00486997
0.00504837
0.00487815
0.00342192
0.00340697
0.00342204
0.00340697
0.00342191
0.00340697
0.00342204
0.00340697
0.00340687
0.00340687
0.00340686
0.00340686
0.00340687
0.00340687
0.00340687
0.00340687
0.00340697
0.00342192
0.00340697
0.00342204
0.00340697
0.00342191
0.00340697
0.00342204
0.00487081
0.00503951
0.00487901
0.00504975
0.00486997
0.00503812
0.00487815
0.00504837
0.00501925
0.00485488
0.00502933
0.00486275
0.00501785
0.00485409
0.00502793
0.00486194
0.00342168
0.00340697
0.0034218
0.00340697
0.00342168
0.00340697
0.00342179
0.00340697
0.00340687
0.00340687
0.00340687
0.00340687
0.00340687
0.00340687
0.00340687
0.00340687
0.00340697
0.00342168
0.00340697
0.0034218
0.00340697
0.00342168
0.00340697
0.00342179
0.00485488
0.00501925
0.00486275
0.00502933
0.00485409
0.00501785
0.00486194
0.00502793
0.00499932
0.00483962
0.00500923
0.00484716
0.0049979
0.00483888
0.00500783
0.00484639
0.00342145
0.00340697
0.00342157
0.00340697
0.00342145
0.00340698
0.00342156
0.00340698
0.00340688
0.00340688
0.00340687
0.00340687
0.00340688
0.00340688
0.00340688
0.00340688
0.00340697
0.00342145
0.00340697
0.00342157
0.00340698
0.00342145
0.00340698
0.00342156
0.00483962
0.00499932
0.00484716
0.00500923
0.00483888
0.0049979
0.00484639
0.00500783
0.00497969
0.00482501
0.00498945
0.00483222
0.00497826
0.00482431
0.00498803
0.0048315
0.00342124
0.00340698
0.00342135
0.00340698
0.00342124
0.00340698
0.00342134
0.00340698
0.00340688
0.00340688
0.00340688
0.00340688
0.00340688
0.00340688
0.00340688
0.00340688
0.00340698
0.00342124
0.00340698
0.00342135
0.00340698
0.00342124
0.00340698
0.00342134
0.00482501
0.00497969
0.00483222
0.00498945
0.00482431
0.00497826
0.0048315
0.00498803
0.00496037
0.00481104
0.00496998
0.00481793
0.00495892
0.0048104
0.00496854
0.00481726
0.00342104
0.00340698
0.00342114
0.00340698
0.00342104
0.00340699
0.00342114
0.00340698
0.00340689
0.00340689
0.00340689
0.00340689
0.00340689
0.00340689
0.00340689
0.00340689
0.00340698
0.00342104
0.00340698
0.00342114
0.00340699
0.00342104
0.00340698
0.00342114
0.00481104
0.00496037
0.00481793
0.00496998
0.0048104
0.00495892
0.00481726
0.00496854
0.00494135
0.00479772
0.00495081
0.00480429
0.00493989
0.00479713
0.00494936
0.00480367
0.00342085
0.00340699
0.00342094
0.00340699
0.00342085
0.00340699
0.00342094
0.00340699
0.0034069
0.0034069
0.00340689
0.00340689
0.0034069
0.0034069
0.0034069
0.0034069
0.00340699
0.00342085
0.00340699
0.00342094
0.00340699
0.00342085
0.00340699
0.00342094
0.00479772
0.00494135
0.00480429
0.00495081
0.00479713
0.00493989
0.00480367
0.00494936
0.00492264
0.00478504
0.00493195
0.00479129
0.00492117
0.00478449
0.00493048
0.00479072
0.00342067
0.003407
0.00342076
0.003407
0.00342067
0.003407
0.00342076
0.003407
0.00340691
0.00340691
0.0034069
0.0034069
0.00340691
0.00340691
0.00340691
0.00340691
0.003407
0.00342067
0.003407
0.00342076
0.003407
0.00342067
0.003407
0.00342076
0.00478504
0.00492264
0.00479129
0.00493195
0.00478449
0.00492117
0.00479072
0.00493048
0.00490427
0.00477298
0.0049134
0.00477892
0.00490278
0.00477249
0.00491192
0.0047784
0.0034205
0.00340701
0.00342058
0.00340701
0.0034205
0.00340701
0.00342058
0.00340701
0.00340692
0.00340692
0.00340691
0.00340691
0.00340692
0.00340692
0.00340692
0.00340692
0.00340701
0.0034205
0.00340701
0.00342058
0.00340701
0.0034205
0.00340701
0.00342058
0.00477298
0.00490427
0.00477892
0.0049134
0.00477249
0.00490278
0.0047784
0.00491192
0.00488624
0.00476156
0.0048952
0.00476718
0.00488475
0.00476112
0.0048937
0.00476671
0.00342035
0.00340702
0.00342042
0.00340702
0.00342035
0.00340703
0.00342042
0.00340702
0.00340693
0.00340693
0.00340693
0.00340693
0.00340694
0.00340694
0.00340693
0.00340693
0.00340702
0.00342034
0.00340702
0.00342042
0.00340703
0.00342035
0.00340702
0.00342042
0.00476156
0.00488624
0.00476718
0.0048952
0.00476111
0.00488475
0.00476671
0.0048937
0.00486861
0.00475075
0.00487736
0.00475606
0.0048671
0.00475037
0.00487586
0.00475565
0.0034202
0.00340704
0.00342027
0.00340703
0.0034202
0.00340704
0.00342027
0.00340703
0.00340695
0.00340695
0.00340694
0.00340694
0.00340695
0.00340695
0.00340694
0.00340694
0.00340704
0.0034202
0.00340703
0.00342027
0.00340704
0.0034202
0.00340703
0.00342027
0.00475075
0.00486861
0.00475606
0.00487736
0.00475036
0.0048671
0.00475565
0.00487586
0.0048514
0.00474057
0.00485993
0.00474557
0.00484989
0.00474023
0.00485843
0.00474521
0.00342007
0.00340706
0.00342013
0.00340705
0.00342007
0.00340706
0.00342014
0.00340705
0.00340697
0.00340697
0.00340696
0.00340696
0.00340697
0.00340697
0.00340696
0.00340696
0.00340706
0.00342007
0.00340705
0.00342013
0.00340706
0.00342007
0.00340705
0.00342014
0.00474057
0.0048514
0.00474557
0.00485993
0.00474023
0.00484989
0.00474521
0.00485843
0.00483466
0.00473099
0.00484295
0.00473569
0.00483316
0.00473071
0.00484145
0.00473538
0.00341995
0.00340707
0.00342
0.00340706
0.00341995
0.00340708
0.00342001
0.00340707
0.00340699
0.00340699
0.00340698
0.00340698
0.00340699
0.00340699
0.00340698
0.00340698
0.00340707
0.00341995
0.00340706
0.00342
0.00340708
0.00341995
0.00340707
0.00342001
0.00473099
0.00483466
0.00473569
0.00484295
0.00473071
0.00483316
0.00473538
0.00484145
0.00481845
0.00472203
0.00482647
0.00472642
0.00481695
0.00472179
0.00482497
0.00472616
0.00341983
0.00340709
0.00341989
0.00340708