/*--------------------------------*- C++ -*----------------------------------*\
  =========                 |
  \\      /  F ield         | OpenFOAM: The Open Source CFD Toolbox
   \\    /   O peration     | Website:  https://openfoam.org
    \\  /    A nd           | Version:  9
     \\/     M anipulation  |
\*---------------------------------------------------------------------------*/
FoamFile
{
    format      ascii;
    class       volScalarField;
    location    "0.05";
    object      nut;
}
// * * * * * * * * * * * * * * * * * * * * * * * * * * * * * * * * * * * * * //

dimensions      [0 2 -1 0 0 0 0];

internalField   nonuniform List<scalar> 
36360
(
0.000216735
0.000211661
0.000213474
0.000208848
0.00018132
0.00017437
0.000181323
0.000174866
0.000167508
0.000166727
0.000167454
0.000166737
0.000173968
0.000173962
0.000174506
0.000174499
0.00016672
0.00016672
0.00016673
0.00016673
0.000173962
0.000173962
0.000174499
0.000174499
0.000166727
0.000167508
0.000166737
0.000167454
0.000173962
0.000173968
0.000174499
0.000174506
0.000211661
0.000216735
0.000208848
0.000213474
0.00017437
0.00018132
0.000174866
0.000181323
0.000216235
0.000211197
0.000216577
0.000211527
0.000181257
0.000174346
0.00018129
0.000174349
0.000167494
0.000166726
0.000167502
0.000166726
0.000173952
0.000173947
0.000173953
0.000173947
0.000166718
0.000166718
0.000166718
0.000166718
0.000173947
0.000173947
0.000173947
0.000173947
0.000166726
0.000167494
0.000166726
0.000167502
0.000173947
0.000173952
0.000173947
0.000173953
0.000211197
0.000216235
0.000211527
0.000216577
0.000174346
0.000181257
0.000174349
0.00018129
0.000215592
0.000210582
0.000215915
0.000210891
0.000181193
0.000174338
0.000181225
0.000174342
0.000167479
0.000166726
0.000167487
0.000166726
0.000173951
0.000173946
0.000173951
0.000173946
0.000166719
0.000166719
0.000166719
0.000166719
0.000173946
0.000173946
0.000173946
0.000173946
0.000166726
0.000167479
0.000166726
0.000167487
0.000173946
0.000173951
0.000173946
0.000173951
0.000210582
0.000215592
0.000210891
0.000215915
0.000174338
0.000181193
0.000174342
0.000181225
0.000214958
0.00020998
0.000215272
0.000210277
0.000181131
0.00017433
0.000181162
0.000174334
0.000167465
0.000166726
0.000167472
0.000166726
0.000173949
0.000173944
0.00017395
0.000173945
0.000166719
0.000166719
0.000166719
0.000166719
0.000173944
0.000173944
0.000173945
0.000173945
0.000166726
0.000167465
0.000166726
0.000167472
0.000173944
0.000173949
0.000173945
0.00017395
0.00020998
0.000214958
0.000210277
0.000215272
0.00017433
0.000181131
0.000174334
0.000181162
0.00021434
0.000209394
0.000214649
0.000209687
0.00018107
0.000174321
0.000181101
0.000174325
0.00016745
0.000166726
0.000167457
0.000166726
0.000173947
0.000173942
0.000173948
0.000173943
0.000166719
0.000166719
0.000166719
0.000166719
0.000173942
0.000173942
0.000173943
0.000173943
0.000166726
0.00016745
0.000166726
0.000167457
0.000173942
0.000173947
0.000173943
0.000173948
0.000209394
0.00021434
0.000209687
0.000214649
0.000174321
0.00018107
0.000174325
0.000181101
0.000213736
0.000208827
0.000214035
0.000209106
0.000181011
0.000174311
0.00018104
0.000174316
0.000167437
0.000166726
0.000167443
0.000166726
0.000173944
0.000173939
0.000173946
0.000173941
0.000166719
0.000166719
0.000166719
0.000166719
0.000173939
0.000173939
0.000173941
0.000173941
0.000166726
0.000167437
0.000166726
0.000167443
0.000173939
0.000173944
0.000173941
0.000173946
0.000208827
0.000213736
0.000209106
0.000214035
0.000174311
0.000181011
0.000174316
0.00018104
0.000213149
0.000208276
0.000213442
0.00020855
0.000180953
0.000174302
0.000180982
0.000174307
0.000167423
0.000166726
0.00016743
0.000166726
0.000173941
0.000173936
0.000173943
0.000173938
0.00016672
0.00016672
0.00016672
0.00016672
0.000173936
0.000173936
0.000173938
0.000173938
0.000166726
0.000167423
0.000166726
0.00016743
0.000173936
0.000173941
0.000173938
0.000173943
0.000208276
0.000213149
0.00020855
0.000213442
0.000174302
0.000180953
0.000174307
0.000180982
0.000212573
0.000207743
0.000212858
0.000208007
0.000180897
0.000174291
0.000180925
0.000174297
0.000167411
0.000166726
0.000167417
0.000166726
0.000173937
0.000173932
0.000173939
0.000173934
0.00016672
0.00016672
0.00016672
0.00016672
0.000173932
0.000173932
0.000173934
0.000173934
0.000166726
0.000167411
0.000166726
0.000167417
0.000173932
0.000173937
0.000173934
0.000173939
0.000207743
0.000212573
0.000208007
0.000212858
0.000174291
0.000180897
0.000174297
0.000180925
0.000212012
0.000207228
0.000212291
0.000207484
0.000180841
0.000174281
0.000180869
0.000174286
0.000167398
0.000166727
0.000167404
0.000166727
0.000173932
0.000173928
0.000173935
0.00017393
0.00016672
0.00016672
0.00016672
0.00016672
0.000173928
0.000173928
0.00017393
0.00017393
0.000166727
0.000167398
0.000166727
0.000167404
0.000173928
0.000173932
0.00017393
0.000173935
0.000207228
0.000212012
0.000207484
0.000212291
0.000174281
0.000180841
0.000174286
0.000180869
0.000211464
0.000206729
0.000211737
0.000206977
0.000180786
0.000174269
0.000180813
0.000174275
0.000167387
0.000166727
0.000167392
0.000166727
0.000173927
0.000173922
0.00017393
0.000173925
0.000166721
0.000166721
0.000166721
0.000166721
0.000173922
0.000173922
0.000173925
0.000173925
0.000166727
0.000167387
0.000166727
0.000167392
0.000173922
0.000173927
0.000173925
0.00017393
0.000206729
0.000211464
0.000206977
0.000211737
0.000174269
0.000180786
0.000174275
0.000180813
0.000210927
0.000206246
0.000211194
0.000206486
0.000180733
0.000174257
0.00018076
0.000174263
0.000167375
0.000166727
0.000167381
0.000166727
0.00017392
0.000173916
0.000173924
0.000173919
0.000166721
0.000166721
0.000166721
0.000166721
0.000173916
0.000173916
0.000173919
0.000173919
0.000166727
0.000167375
0.000166727
0.000167381
0.000173916
0.00017392
0.000173919
0.000173924
0.000206246
0.000210927
0.000206486
0.000211194
0.000174257
0.000180733
0.000174263
0.00018076
0.0002104
0.00020578
0.000210662
0.000206011
0.000180681
0.000174245
0.000180707
0.000174251
0.000167365
0.000166728
0.00016737
0.000166728
0.000173913
0.000173909
0.000173917
0.000173912
0.000166722
0.000166722
0.000166722
0.000166722
0.000173909
0.000173909
0.000173912
0.000173912
0.000166728
0.000167365
0.000166728
0.00016737
0.000173909
0.000173913
0.000173912
0.000173917
0.000205779
0.0002104
0.000206011
0.000210662
0.000174245
0.000180681
0.000174251
0.000180707
0.000209884
0.000205329
0.00021014
0.000205552
0.00018063
0.000174231
0.000180656
0.000174238
0.000167354
0.000166728
0.000167359
0.000166728
0.000173904
0.0001739
0.000173909
0.000173905
0.000166723
0.000166723
0.000166722
0.000166722
0.0001739
0.0001739
0.000173904
0.000173904
0.000166728
0.000167354
0.000166728
0.000167359
0.0001739
0.000173904
0.000173905
0.000173909
0.000205329
0.000209884
0.000205552
0.00021014
0.000174231
0.00018063
0.000174238
0.000180656
0.000209377
0.000204893
0.000209629
0.000205109
0.00018058
0.000174216
0.000180605
0.000174224
0.000167344
0.000166729
0.000167349
0.000166729
0.000173895
0.000173891
0.0001739
0.000173896
0.000166723
0.000166723
0.000166723
0.000166723
0.000173891
0.000173891
0.000173895
0.000173895
0.000166729
0.000167344
0.000166729
0.000167349
0.000173891
0.000173895
0.000173896
0.0001739
0.000204893
0.000209377
0.000205109
0.000209629
0.000174216
0.00018058
0.000174224
0.000180605
0.000208879
0.000204474
0.000209126
0.000204681
0.000180531
0.0001742
0.000180556
0.000174208
0.000167335
0.00016673
0.00016734
0.000166729
0.000173884
0.00017388
0.000173889
0.000173885
0.000166724
0.000166724
0.000166724
0.000166724
0.00017388
0.00017388
0.000173885
0.000173885
0.00016673
0.000167335
0.000166729
0.00016734
0.00017388
0.000173884
0.000173885
0.000173889
0.000204474
0.000208879
0.000204681
0.000209126
0.0001742
0.000180531
0.000174208
0.000180556
0.000208389
0.000204069
0.000208633
0.000204269
0.000180484
0.000174183
0.000180507
0.000174192
0.000167326
0.00016673
0.000167331
0.00016673
0.000173871
0.000173867
0.000173878
0.000173874
0.000166725
0.000166725
0.000166724
0.000166724
0.000173867
0.000173867
0.000173874
0.000173874
0.00016673
0.000167326
0.00016673
0.000167331
0.000173867
0.000173871
0.000173874
0.000173878
0.000204069
0.000208389
0.000204269
0.000208633
0.000174183
0.000180484
0.000174192
0.000180507
0.000207906
0.00020368
0.000208147
0.000203873
0.000180437
0.000174165
0.00018046
0.000174174
0.000167318
0.000166731
0.000167322
0.000166731
0.000173857
0.000173853
0.000173864
0.000173861
0.000166726
0.000166726
0.000166725
0.000166725
0.000173853
0.000173853
0.00017386
0.00017386
0.000166731
0.000167318
0.000166731
0.000167322
0.000173853
0.000173857
0.000173861
0.000173864
0.00020368
0.000207907
0.000203873
0.000208147
0.000174165
0.000180437
0.000174174
0.00018046
0.000207431
0.000203306
0.000207668
0.000203491
0.000180391
0.000174145
0.000180414
0.000174155
0.00016731
0.000166732
0.000167314
0.000166732
0.000173842
0.000173838
0.00017385
0.000173846
0.000166727
0.000166727
0.000166726
0.000166726
0.000173838
0.000173838
0.000173846
0.000173846
0.000166732
0.00016731
0.000166732
0.000167314
0.000173838
0.000173842
0.000173846
0.00017385
0.000203306
0.000207431
0.000203491
0.000207668
0.000174145
0.000180391
0.000174155
0.000180414
0.000206963
0.000202947
0.000207196
0.000203124
0.000180347
0.000174124
0.000180369
0.000174135
0.000167303
0.000166733
0.000167306
0.000166733
0.000173824
0.00017382
0.000173833
0.000173829
0.000166728
0.000166728
0.000166728
0.000166728
0.00017382
0.00017382
0.000173829
0.000173829
0.000166733
0.000167303
0.000166733
0.000167306
0.00017382
0.000173824
0.000173829
0.000173833
0.000202947
0.000206963
0.000203124
0.000207196
0.000174124
0.000180347
0.000174135
0.000180369
0.000206501
0.000202602
0.000206731
0.000202772
0.000180303
0.000174101
0.000180325
0.000174113
0.000167296
0.000166735
0.000167299
0.000166734
0.000173805
0.000173801
0.000173815
0.000173811
0.00016673
0.00016673
0.000166729
0.000166729
0.000173801
0.000173801
0.000173811
0.000173811
0.000166735
0.000167296
0.000166734
0.000167299
0.000173801
0.000173805
0.000173811
0.000173815
0.000202602
0.000206501
0.000202772
0.000206731
0.000174101
0.000180303
0.000174113
0.000180325
0.000206045
0.000202272
0.000206272
0.000202435
0.000180261
0.000174076
0.000180282
0.000174089
0.000167289
0.000166736
0.000167293
0.000166735
0.000173784
0.00017378
0.000173795
0.000173791
0.000166731
0.000166731
0.00016673
0.00016673
0.00017378
0.00017378
0.000173791
0.000173791
0.000166736
0.000167289
0.000166735
0.000167293
0.00017378
0.000173784
0.000173791
0.000173795
0.000202272
0.000206045
0.000202435
0.000206272
0.000174076
0.000180261
0.000174089
0.000180282
0.000205596
0.000201957
0.000205819
0.000202113
0.000180219
0.000174049
0.00018024
0.000174063
0.000167284
0.000166738
0.000167286
0.000166737
0.000173761
0.000173757
0.000173772
0.000173769
0.000166733
0.000166733
0.000166732
0.000166732
0.000173757
0.000173757
0.000173769
0.000173769
0.000166738
0.000167283
0.000166737
0.000167286
0.000173757
0.000173761
0.000173769
0.000173772
0.000201957
0.000205596
0.000202113
0.000205819
0.000174049
0.000180219
0.000174063
0.00018024
0.000205153
0.000201657
0.000205373
0.000201805
0.000180179
0.000174021
0.000180199
0.000174035
0.000167278
0.000166739
0.000167281
0.000166738
0.000173735
0.000173732
0.000173748
0.000173744
0.000166734
0.000166734
0.000166733
0.000166733
0.000173732
0.000173732
0.000173744
0.000173744
0.000166739
0.000167278
0.000166738
0.000167281
0.000173732
0.000173735
0.000173744
0.000173748
0.000201657
0.000205153
0.000201805
0.000205373
0.000174021
0.000180179
0.000174035
0.000180199
0.000204718
0.000201371
0.000204934
0.000201512
0.00018014
0.00017399
0.00018016
0.000174006
0.000167273
0.000166741
0.000167276
0.00016674
0.000173708
0.000173704
0.000173722
0.000173718
0.000166736
0.000166736
0.000166735
0.000166735
0.000173704
0.000173704
0.000173718
0.000173718
0.000166741
0.000167273
0.00016674
0.000167275
0.000173704
0.000173708
0.000173718
0.000173722
0.000201371
0.000204718
0.000201512
0.000204934
0.00017399
0.00018014
0.000174006
0.00018016
0.000204291
0.000201099
0.000204503
0.000201233
0.000180103
0.000173958
0.000180121
0.000173974
0.000167269
0.000166743
0.000167271
0.000166742
0.000173678
0.000173674
0.000173693
0.000173689
0.000166738
0.000166738
0.000166737
0.000166737
0.000173674
0.000173674
0.000173689
0.000173689
0.000166743
0.000167269
0.000166742
0.000167271
0.000173674
0.000173678
0.000173689
0.000173693
0.000201099
0.000204291
0.000201233
0.000204503
0.000173958
0.000180103
0.000173974
0.000180121
0.000203872
0.000200842
0.00020408
0.000200969
0.000180066
0.000173923
0.000180084
0.000173941
0.000167264
0.000166745
0.000167266
0.000166744
0.000173646
0.000173642
0.000173662
0.000173659
0.00016674
0.00016674
0.000166739
0.000166739
0.000173642
0.000173642
0.000173659
0.000173659
0.000166745
0.000167264
0.000166744
0.000167266
0.000173642
0.000173646
0.000173659
0.000173662
0.000200842
0.000203872
0.000200969
0.00020408
0.000173923
0.000180066
0.000173941
0.000180084
0.000203463
0.000200599
0.000203666
0.000200719
0.000180031
0.000173887
0.000180049
0.000173905
0.000167261
0.000166747
0.000167263
0.000166746
0.000173612
0.000173608
0.000173629
0.000173626
0.000166742
0.000166742
0.000166741
0.000166741
0.000173608
0.000173608
0.000173626
0.000173626
0.000166747
0.000167261
0.000166746
0.000167263
0.000173608
0.000173612
0.000173626
0.000173629
0.000200599
0.000203463
0.000200719
0.000203666
0.000173887
0.000180031
0.000173905
0.000180049
0.000203065
0.000200371
0.000203263
0.000200483
0.000179998
0.000173848
0.000180014
0.000173868
0.000167257
0.000166749
0.000167259
0.000166748
0.000173576
0.000173572
0.000173594
0.000173591
0.000166744
0.000166744
0.000166743
0.000166743
0.000173572
0.000173572
0.00017359
0.00017359
0.000166749
0.000167257
0.000166748
0.000167259
0.000173572
0.000173576
0.000173591
0.000173594
0.000200371
0.000203065
0.000200483
0.000203263
0.000173848
0.000179998
0.000173868
0.000180014
0.00020268
0.000200157
0.000202871
0.000200262
0.000179965
0.000173808
0.000179981
0.000173828
0.000167254
0.000166751
0.000167256
0.00016675
0.000173537
0.000173534
0.000173557
0.000173553
0.000166746
0.000166746
0.000166745
0.000166745
0.000173534
0.000173534
0.000173553
0.000173553
0.000166751
0.000167254
0.00016675
0.000167256
0.000173534
0.000173537
0.000173553
0.000173557
0.000200157
0.00020268
0.000200262
0.000202871
0.000173808
0.000179965
0.000173828
0.000179981
0.000202308
0.000199956
0.000202492
0.000200054
0.000179935
0.000173765
0.00017995
0.000173787
0.000167252
0.000166753
0.000167253
0.000166752
0.000173497
0.000173494
0.000173517
0.000173514
0.000166748
0.000166748
0.000166747
0.000166747
0.000173494
0.000173494
0.000173514
0.000173514
0.000166753
0.000167252
0.000166752
0.000167253
0.000173494
0.000173497
0.000173514
0.000173517
0.000199956
0.000202308
0.000200054
0.000202492
0.000173765
0.000179935
0.000173787
0.00017995
0.000201951
0.00019977
0.000202127
0.000199861
0.000179905
0.000173722
0.00017992
0.000173744
0.00016725
0.000166755
0.000167251
0.000166754
0.000173455
0.000173451
0.000173476
0.000173473
0.00016675
0.00016675
0.000166749
0.000166749
0.000173451
0.000173451
0.000173473
0.000173473
0.000166755
0.00016725
0.000166754
0.000167251
0.000173451
0.000173455
0.000173473
0.000173476
0.00019977
0.000201951
0.000199861
0.000202127
0.000173722
0.000179905
0.000173744
0.00017992
0.00020161
0.000199597
0.000201778
0.000199681
0.000179878
0.000173676
0.000179891
0.000173699
0.000167248
0.000166757
0.000167249
0.000166756
0.000173411
0.000173408
0.000173433
0.00017343
0.000166752
0.000166752
0.000166751
0.000166751
0.000173408
0.000173408
0.00017343
0.00017343
0.000166757
0.000167248
0.000166756
0.000167249
0.000173408
0.000173411
0.00017343
0.000173433
0.000199597
0.00020161
0.000199681
0.000201778
0.000173676
0.000179878
0.000173699
0.000179891
0.000201287
0.000199438
0.000201446
0.000199515
0.000179852
0.000173629
0.000179865
0.000173653
0.000167246
0.000166759
0.000167247
0.000166758
0.000173365
0.000173362
0.000173388
0.000173385
0.000166754
0.000166754
0.000166753
0.000166753
0.000173362
0.000173362
0.000173385
0.000173385
0.000166759
0.000167246
0.000166758
0.000167247
0.000173362
0.000173365
0.000173385
0.000173388
0.000199438
0.000201287
0.000199515
0.000201446
0.000173629
0.000179852
0.000173653
0.000179865
0.000200983
0.000199291
0.000201132
0.000199362
0.000179828
0.000173581
0.00017984
0.000173606
0.000167244
0.00016676
0.000167245
0.000166759
0.000173319
0.000173316
0.000173342
0.000173339
0.000166756
0.000166756
0.000166755
0.000166755
0.000173315
0.000173315
0.000173339
0.000173339
0.00016676
0.000167244
0.000166759
0.000167245
0.000173316
0.000173319
0.000173339
0.000173342
0.000199291
0.000200983
0.000199362
0.000201132
0.000173581
0.000179828
0.000173606
0.00017984
0.000200699
0.000199158
0.000200838
0.000199223
0.000179806
0.000173532
0.000179817
0.000173557
0.000167243
0.000166762
0.000167244
0.000166761
0.000173271
0.000173268
0.000173295
0.000173292
0.000166758
0.000166758
0.000166757
0.000166757
0.000173268
0.000173268
0.000173292
0.000173292
0.000166762
0.000167243
0.000166761
0.000167244
0.000173268
0.000173271
0.000173292
0.000173295
0.000199158
0.000200699
0.000199223
0.000200838
0.000173532
0.000179806
0.000173557
0.000179817
0.000200437
0.000199037
0.000200565
0.000199096
0.000179785
0.000173483
0.000179795
0.000173508
0.000167242
0.000166764
0.000167242
0.000166763
0.000173222
0.000173219
0.000173246
0.000173243
0.000166759
0.000166759
0.000166759
0.000166759
0.000173219
0.000173219
0.000173243
0.000173243
0.000166764
0.000167242
0.000166763
0.000167242
0.000173219
0.000173222
0.000173243
0.000173246
0.000199037
0.000200437
0.000199096
0.000200565
0.000173483
0.000179785
0.000173508
0.000179795
0.000200197
0.000198929
0.000200313
0.000198981
0.000179766
0.000173432
0.000179775
0.000173457
0.000167241
0.000166765
0.000167241
0.000166764
0.000173172
0.000173169
0.000173197
0.000173194
0.000166761
0.000166761
0.00016676
0.00016676
0.000173169
0.000173169
0.000173194
0.000173194
0.000166765
0.00016724
0.000166764
0.000167241
0.000173169
0.000173172
0.000173194
0.000173197
0.000198929
0.000200197
0.000198981
0.000200313
0.000173432
0.000179766
0.000173457
0.000179775
0.000199979
0.000198832
0.000200084
0.000198878
0.000179749
0.000173381
0.000179758
0.000173407
0.00016724
0.000166766
0.00016724
0.000166766
0.000173122
0.000173118
0.000173147
0.000173144
0.000166762
0.000166762
0.000166761
0.000166761
0.000173118
0.000173118
0.000173144
0.000173144
0.000166766
0.00016724
0.000166766
0.00016724
0.000173118
0.000173122
0.000173144
0.000173147
0.000198832
0.000199979
0.000198878
0.000200084
0.000173381
0.000179749
0.000173407
0.000179758
0.000199923
0.000198682
0.00019988
0.000198787
0.000179729
0.000173329
0.000179742
0.000173355
0.000167238
0.000166767
0.000167239
0.000166767
0.000173071
0.000173068
0.000173096
0.000173093
0.000166763
0.000166763
0.000166763
0.000166763
0.000173068
0.000173068
0.000173093
0.000173093
0.000166767
0.000167238
0.000166767
0.000167239
0.000173068
0.000173071
0.000173093
0.000173096
0.000198682
0.000199923
0.000198787
0.00019988
0.000173329
0.000179729
0.000173355
0.000179742
0.000217084
0.000212065
0.000213805
0.000209185
0.000217067
0.000212048
0.000213804
0.000209162
0.000167413
0.000166624
0.000167365
0.00016664
0.000167414
0.000166624
0.000167365
0.00016664
0.000166616
0.000166616
0.000166633
0.000166633
0.000166617
0.000166617
0.000166633
0.000166633
0.000166624
0.000167413
0.00016664
0.000167365
0.000166624
0.000167414
0.00016664
0.000167365
0.000212065
0.000217084
0.000209185
0.000213805
0.000212048
0.000217067
0.000209162
0.000213804
0.000216579
0.000211581
0.000216923
0.000211916
0.000216558
0.000211557
0.000216904
0.000211894
0.000167399
0.000166622
0.000167407
0.000166622
0.000167399
0.000166622
0.000167407
0.000166622
0.000166614
0.000166614
0.000166614
0.000166614
0.000166615
0.000166615
0.000166615
0.000166615
0.000166622
0.000167399
0.000166622
0.000167407
0.000166622
0.000167399
0.000166622
0.000167407
0.000211581
0.000216579
0.000211916
0.000216923
0.000211557
0.000216558
0.000211894
0.000216904
0.000215928
0.000210954
0.000216256
0.000211269
0.000215906
0.00021093
0.000216233
0.000211244
0.000167383
0.000166621
0.000167391
0.000166622
0.000167384
0.000166622
0.000167391
0.000166622
0.000166614
0.000166614
0.000166614
0.000166614
0.000166615
0.000166615
0.000166615
0.000166615
0.000166621
0.000167383
0.000166622
0.000167391
0.000166622
0.000167384
0.000166622
0.000167391
0.000210954
0.000215928
0.000211269
0.000216256
0.00021093
0.000215906
0.000211244
0.000216233
0.000215285
0.000210342
0.000215603
0.000210644
0.000215259
0.000210316
0.000215579
0.000210619
0.000167368
0.000166621
0.000167376
0.000166621
0.000167368
0.000166622
0.000167376
0.000166622
0.000166614
0.000166614
0.000166614
0.000166614
0.000166615
0.000166615
0.000166615
0.000166615
0.000166621
0.000167368
0.000166621
0.000167376
0.000166622
0.000167368
0.000166622
0.000167376
0.000210342
0.000215285
0.000210644
0.000215603
0.000210316
0.000215259
0.000210619
0.000215579
0.000214659
0.000209746
0.000214972
0.000210043
0.000214632
0.000209721
0.000214945
0.000210018
0.000167354
0.000166621
0.000167361
0.000166621
0.000167354
0.000166622
0.000167361
0.000166622
0.000166614
0.000166614
0.000166614
0.000166614
0.000166615
0.000166615
0.000166615
0.000166615
0.000166621
0.000167354
0.000166621
0.000167361
0.000166622
0.000167354
0.000166622
0.000167361
0.000209746
0.000214659
0.000210043
0.000214972
0.000209721
0.000214632
0.000210018
0.000214945
0.000214045
0.000209168
0.000214348
0.000209453
0.000214018
0.000209144
0.000214321
0.000209427
0.00016734
0.000166621
0.000167347
0.000166621
0.00016734
0.000166622
0.000167347
0.000166622
0.000166614
0.000166614
0.000166614
0.000166614
0.000166615
0.000166615
0.000166615
0.000166615
0.000166621
0.00016734
0.000166621
0.000167347
0.000166622
0.00016734
0.000166622
0.000167347
0.000209168
0.000214045
0.000209453
0.000214348
0.000209144
0.000214018
0.000209427
0.000214321
0.000213448
0.000208609
0.000213746
0.000208888
0.00021342
0.000208583
0.000213719
0.000208863
0.000167326
0.000166621
0.000167333
0.000166621
0.000167326
0.000166621
0.000167333
0.000166622
0.000166614
0.000166614
0.000166614
0.000166614
0.000166615
0.000166615
0.000166615
0.000166615
0.000166621
0.000167326
0.000166621
0.000167333
0.000166621
0.000167326
0.000166622
0.000167333
0.000208609
0.000213448
0.000208888
0.000213746
0.000208583
0.00021342
0.000208863
0.000213719
0.000212865
0.000208067
0.000213154
0.000208335
0.000212835
0.000208041
0.000213124
0.000208308
0.000167313
0.000166621
0.000167319
0.000166621
0.000167313
0.000166621
0.000167319
0.000166621
0.000166614
0.000166614
0.000166614
0.000166614
0.000166615
0.000166615
0.000166615
0.000166615
0.000166621
0.000167313
0.000166621
0.000167319
0.000166621
0.000167313
0.000166621
0.000167319
0.000208067
0.000212865
0.000208335
0.000213154
0.000208041
0.000212835
0.000208308
0.000213124
0.000212296
0.000207542
0.00021258
0.000207803
0.000212267
0.000207517
0.000212551
0.000207778
0.0001673
0.000166621
0.000167306
0.000166621
0.0001673
0.000166621
0.000167306
0.000166621
0.000166614
0.000166614
0.000166614
0.000166614
0.000166615
0.000166615
0.000166615
0.000166615
0.000166621
0.0001673
0.000166621
0.000167306
0.000166621
0.0001673
0.000166621
0.000167306
0.000207542
0.000212296
0.000207803
0.00021258
0.000207517
0.000212267
0.000207778
0.000212551
0.000211739
0.000207035
0.000212015
0.000207286
0.000211708
0.000207009
0.000211985
0.00020726
0.000167287
0.00016662
0.000167293
0.000166621
0.000167288
0.000166621
0.000167294
0.000166621
0.000166614
0.000166614
0.000166614
0.000166614
0.000166615
0.000166615
0.000166615
0.000166615
0.00016662
0.000167287
0.000166621
0.000167293
0.000166621
0.000167288
0.000166621
0.000167294
0.000207035
0.000211739
0.000207286
0.000212015
0.000207009
0.000211708
0.00020726
0.000211985
0.000211195
0.000206544
0.000211466
0.000206788
0.000211164
0.000206519
0.000211435
0.000206762
0.000167275
0.00016662
0.000167281
0.00016662
0.000167276
0.000166621
0.000167282
0.000166621
0.000166614
0.000166614
0.000166614
0.000166614
0.000166615
0.000166615
0.000166615
0.000166615
0.00016662
0.000167275
0.00016662
0.000167281
0.000166621
0.000167276
0.000166621
0.000167282
0.000206544
0.000211195
0.000206788
0.000211466
0.000206519
0.000211164
0.000206762
0.000211435
0.000210661
0.000206069
0.000210927
0.000206305
0.000210631
0.000206045
0.000210896
0.00020628
0.000167264
0.00016662
0.00016727
0.00016662
0.000167264
0.000166621
0.00016727
0.000166621
0.000166614
0.000166614
0.000166614
0.000166614
0.000166615
0.000166615
0.000166615
0.000166615
0.00016662
0.000167264
0.00016662
0.00016727
0.000166621
0.000167264
0.000166621
0.00016727
0.000206069
0.000210661
0.000206305
0.000210927
0.000206045
0.000210631
0.00020628
0.000210896
0.000210138
0.000205611
0.000210398
0.000205838
0.000210107
0.000205587
0.000210368
0.000205814
0.000167253
0.00016662
0.000167258
0.00016662
0.000167253
0.000166621
0.000167259
0.000166621
0.000166614
0.000166614
0.000166614
0.000166614
0.000166615
0.000166615
0.000166615
0.000166615
0.00016662
0.000167253
0.00016662
0.000167258
0.000166621
0.000167253
0.000166621
0.000167259
0.000205611
0.000210138
0.000205838
0.000210398
0.000205587
0.000210107
0.000205814
0.000210368
0.000209625
0.000205168
0.00020988
0.000205387
0.000209594
0.000205145
0.000209849
0.000205364
0.000167242
0.00016662
0.000167248
0.00016662
0.000167243
0.000166621
0.000167248
0.000166621
0.000166614
0.000166614
0.000166614
0.000166614
0.000166615
0.000166615
0.000166615
0.000166615
0.00016662
0.000167242
0.00016662
0.000167248
0.000166621
0.000167243
0.000166621
0.000167248
0.000205168
0.000209625
0.000205387
0.00020988
0.000205145
0.000209594
0.000205364
0.000209849
0.000209121
0.000204741
0.000209372
0.000204952
0.000209089
0.000204719
0.00020934
0.00020493
0.000167232
0.00016662
0.000167237
0.00016662
0.000167233
0.000166621
0.000167238
0.000166621
0.000166614
0.000166614
0.000166614
0.000166614
0.000166615
0.000166615
0.000166615
0.000166615
0.00016662
0.000167232
0.00016662
0.000167237
0.000166621
0.000167233
0.000166621
0.000167238
0.000204741
0.000209121
0.000204952
0.000209372
0.000204719
0.000209089
0.00020493
0.00020934
0.000208625
0.00020433
0.000208872
0.000204533
0.000208593
0.000204309
0.00020884
0.000204512
0.000167222
0.00016662
0.000167227
0.00016662
0.000167223
0.000166621
0.000167228
0.000166621
0.000166614
0.000166614
0.000166614
0.000166614
0.000166615
0.000166615
0.000166615
0.000166615
0.00016662
0.000167222
0.00016662
0.000167227
0.000166621
0.000167223
0.000166621
0.000167228
0.00020433
0.000208625
0.000204533
0.000208872
0.000204309
0.000208593
0.000204512
0.00020884
0.000208138
0.000203934
0.00020838
0.00020413
0.000208105
0.000203914
0.000208348
0.000204109
0.000167213
0.00016662
0.000167218
0.00016662
0.000167214
0.000166621
0.000167218
0.000166621
0.000166615
0.000166615
0.000166614
0.000166614
0.000166615
0.000166615
0.000166615
0.000166615
0.00016662
0.000167213
0.00016662
0.000167218
0.000166621
0.000167214
0.000166621
0.000167218
0.000203934
0.000208138
0.00020413
0.00020838
0.000203914
0.000208105
0.000204109
0.000208348
0.000207658
0.000203554
0.000207897
0.000203742
0.000207625
0.000203535
0.000207864
0.000203722
0.000167204
0.00016662
0.000167208
0.00016662
0.000167205
0.000166621
0.000167209
0.000166621
0.000166615
0.000166615
0.000166615
0.000166615
0.000166615
0.000166615
0.000166615
0.000166615
0.00016662
0.000167204
0.00016662
0.000167208
0.000166621
0.000167205
0.000166621
0.000167209
0.000203553
0.000207658
0.000203742
0.000207897
0.000203535
0.000207625
0.000203722
0.000207864
0.000207185
0.000203188
0.00020742
0.000203369
0.000207151
0.000203171
0.000207387
0.00020335
0.000167196
0.00016662
0.0001672
0.00016662
0.000167196
0.000166621
0.0001672
0.000166621
0.000166615
0.000166615
0.000166615
0.000166615
0.000166616
0.000166615
0.000166615
0.000166615
0.00016662
0.000167196
0.00016662
0.0001672
0.000166621
0.000167196
0.000166621
0.0001672
0.000203188
0.000207185
0.000203369
0.00020742
0.00020317
0.000207151
0.00020335
0.000207387
0.000206718
0.000202838
0.00020695
0.000203011
0.000206685
0.000202822
0.000206917
0.000202994
0.000167187
0.00016662
0.000167191
0.00016662
0.000167188
0.000166621
0.000167192
0.000166621
0.000166615
0.000166615
0.000166615
0.000166615
0.000166616
0.000166616
0.000166616
0.000166616
0.00016662
0.000167187
0.00016662
0.000167191
0.000166621
0.000167188
0.000166621
0.000167192
0.000202838
0.000206718
0.000203011
0.00020695
0.000202822
0.000206685
0.000202994
0.000206917
0.000206259
0.000202503
0.000206487
0.000202669
0.000206225
0.000202488
0.000206454
0.000202653
0.00016718
0.00016662
0.000167183
0.00016662
0.00016718
0.000166621
0.000167184
0.000166621
0.000166615
0.000166615
0.000166615
0.000166615
0.000166616
0.000166616
0.000166616
0.000166616
0.00016662
0.00016718
0.00016662
0.000167183
0.000166621
0.00016718
0.000166621
0.000167184
0.000202503
0.000206259
0.000202669
0.000206487
0.000202488
0.000206225
0.000202653
0.000206454
0.000205806
0.000202183
0.000206031
0.000202341
0.000205771
0.000202169
0.000205997
0.000202326
0.000167172
0.00016662
0.000167176
0.00016662
0.000167173
0.000166621
0.000167177
0.000166621
0.000166615
0.000166615
0.000166615
0.000166615
0.000166616
0.000166616
0.000166616
0.000166616
0.00016662
0.000167172
0.00016662
0.000167176
0.000166621
0.000167173
0.000166621
0.000167177
0.000202183
0.000205806
0.000202341
0.000206031
0.000202169
0.000205771
0.000202326
0.000205997
0.00020536
0.000201878
0.000205582
0.000202029
0.000205325
0.000201865
0.000205547
0.000202015
0.000167165
0.000166621
0.000167169
0.00016662
0.000167166
0.000166621
0.00016717
0.000166621
0.000166616
0.000166616
0.000166616
0.000166616
0.000166616
0.000166616
0.000166616
0.000166616
0.000166621
0.000167165
0.00016662