/*--------------------------------*- C++ -*----------------------------------*\
  =========                 |
  \\      /  F ield         | OpenFOAM: The Open Source CFD Toolbox
   \\    /   O peration     | Website:  https://openfoam.org
    \\  /    A nd           | Version:  9
     \\/     M anipulation  |
\*---------------------------------------------------------------------------*/
FoamFile
{
    format      ascii;
    class       volScalarField;
    location    "0.05";
    object      p;
}
// * * * * * * * * * * * * * * * * * * * * * * * * * * * * * * * * * * * * * //

dimensions      [0 2 -2 0 0 0 0];

internalField   nonuniform List<scalar> 
36360
(
20.0861
20.0841
20.0959
20.0945
20.087
20.0828
20.0962
20.0934
20.0848
20.0849
20.0951
20.0952
20.0847
20.0848
20.0947
20.0948
20.0849
20.0849
20.0952
20.0952
20.0848
20.0848
20.0948
20.0948
20.0849
20.0848
20.0952
20.0951
20.0848
20.0847
20.0948
20.0947
20.0841
20.0861
20.0945
20.0959
20.0828
20.087
20.0934
20.0962
20.0655
20.0649
20.0757
20.0745
20.0668
20.0635
20.0768
20.0731
20.0649
20.065
20.0748
20.0749
20.0648
20.065
20.0747
20.0749
20.065
20.065
20.0749
20.0749
20.065
20.065
20.0749
20.0749
20.065
20.0649
20.0749
20.0748
20.065
20.0648
20.0749
20.0747
20.0649
20.0655
20.0745
20.0757
20.0635
20.0668
20.0731
20.0768
20.0457
20.0458
20.0555
20.0553
20.047
20.0444
20.0568
20.0539
20.0454
20.0455
20.0551
20.0552
20.0454
20.0455
20.055
20.0552
20.0455
20.0455
20.0552
20.0552
20.0455
20.0455
20.0552
20.0552
20.0455
20.0454
20.0552
20.0551
20.0455
20.0454
20.0552
20.055
20.0458
20.0457
20.0553
20.0555
20.0444
20.047
20.0539
20.0568
20.0264
20.027
20.0359
20.0364
20.0277
20.0256
20.0373
20.035
20.0264
20.0264
20.0358
20.0359
20.0263
20.0265
20.0358
20.0359
20.0265
20.0265
20.036
20.036
20.0265
20.0265
20.036
20.036
20.0264
20.0264
20.0359
20.0358
20.0265
20.0263
20.0359
20.0358
20.027
20.0264
20.0364
20.0359
20.0256
20.0277
20.035
20.0373
20.0076
20.0085
20.0169
20.0177
20.0089
20.0071
20.0182
20.0163
20.0077
20.0078
20.017
20.0171
20.0077
20.0078
20.017
20.0171
20.0078
20.0078
20.0171
20.0171
20.0078
20.0078
20.0171
20.0171
20.0078
20.0077
20.0171
20.017
20.0078
20.0077
20.0171
20.017
20.0085
20.0076
20.0177
20.0169
20.0071
20.0089
20.0163
20.0182
19.9892
19.9903
19.9983
19.9993
19.9905
19.9889
19.9997
19.998
19.9895
19.9896
19.9986
19.9986
19.9895
19.9896
19.9986
19.9986
19.9896
19.9896
19.9987
19.9987
19.9896
19.9896
19.9987
19.9987
19.9896
19.9895
19.9986
19.9986
19.9896
19.9895
19.9986
19.9986
19.9903
19.9892
19.9993
19.9983
19.9889
19.9905
19.998
19.9997
19.9713
19.9725
19.9802
19.9813
19.9726
19.9711
19.9815
19.98
19.9717
19.9717
19.9806
19.9806
19.9717
19.9717
19.9806
19.9806
19.9717
19.9717
19.9806
19.9806
19.9717
19.9717
19.9806
19.9806
19.9717
19.9717
19.9806
19.9806
19.9717
19.9717
19.9806
19.9806
19.9725
19.9713
19.9813
19.9802
19.9711
19.9726
19.98
19.9815
19.9538
19.955
19.9625
19.9637
19.9551
19.9537
19.9638
19.9624
19.9543
19.9543
19.963
19.963
19.9543
19.9543
19.963
19.963
19.9543
19.9543
19.963
19.963
19.9543
19.9543
19.963
19.963
19.9543
19.9543
19.963
19.963
19.9543
19.9543
19.963
19.963
19.955
19.9538
19.9637
19.9625
19.9537
19.9551
19.9624
19.9638
19.9368
19.938
19.9453
19.9465
19.9381
19.9367
19.9465
19.9452
19.9373
19.9373
19.9458
19.9457
19.9373
19.9373
19.9458
19.9458
19.9373
19.9373
19.9457
19.9457
19.9373
19.9373
19.9458
19.9458
19.9373
19.9373
19.9457
19.9458
19.9373
19.9373
19.9458
19.9458
19.938
19.9368
19.9465
19.9453
19.9367
19.9381
19.9452
19.9465
19.9202
19.9213
19.9284
19.9296
19.9214
19.9201
19.9297
19.9283
19.9207
19.9207
19.929
19.9289
19.9207
19.9207
19.929
19.9289
19.9207
19.9207
19.9289
19.9289
19.9207
19.9207
19.9289
19.9289
19.9207
19.9207
19.9289
19.929
19.9207
19.9207
19.9289
19.929
19.9213
19.9202
19.9296
19.9284
19.9201
19.9214
19.9283
19.9297
19.9039
19.9051
19.912
19.9132
19.9052
19.9039
19.9133
19.9119
19.9045
19.9045
19.9125
19.9125
19.9045
19.9045
19.9126
19.9125
19.9045
19.9045
19.9125
19.9125
19.9045
19.9045
19.9125
19.9125
19.9045
19.9045
19.9125
19.9125
19.9045
19.9045
19.9125
19.9126
19.9051
19.9039
19.9132
19.912
19.9039
19.9052
19.9119
19.9133
19.8881
19.8893
19.896
19.8972
19.8894
19.8881
19.8972
19.8959
19.8887
19.8887
19.8965
19.8965
19.8887
19.8887
19.8966
19.8965
19.8887
19.8887
19.8965
19.8965
19.8887
19.8887
19.8965
19.8965
19.8887
19.8887
19.8965
19.8965
19.8887
19.8887
19.8965
19.8965
19.8893
19.8881
19.8972
19.896
19.8881
19.8894
19.8959
19.8972
19.8728
19.8739
19.8804
19.8815
19.874
19.8727
19.8816
19.8803
19.8733
19.8733
19.8809
19.8809
19.8733
19.8733
19.881
19.881
19.8733
19.8733
19.8809
19.8809
19.8733
19.8733
19.8809
19.8809
19.8733
19.8733
19.8809
19.8809
19.8733
19.8733
19.881
19.881
19.8739
19.8728
19.8815
19.8804
19.8727
19.874
19.8803
19.8816
19.8578
19.8589
19.8652
19.8664
19.859
19.8577
19.8665
19.8652
19.8583
19.8583
19.8658
19.8658
19.8584
19.8584
19.8658
19.8658
19.8583
19.8583
19.8658
19.8658
19.8584
19.8584
19.8658
19.8658
19.8583
19.8583
19.8658
19.8658
19.8584
19.8584
19.8658
19.8658
19.8589
19.8578
19.8664
19.8652
19.8577
19.859
19.8652
19.8665
19.8433
19.8444
19.8505
19.8516
19.8445
19.8432
19.8517
19.8504
19.8438
19.8438
19.851
19.851
19.8438
19.8438
19.8511
19.8511
19.8438
19.8438
19.851
19.851
19.8438
19.8438
19.851
19.851
19.8438
19.8438
19.851
19.851
19.8438
19.8438
19.8511
19.8511
19.8444
19.8433
19.8516
19.8505
19.8432
19.8445
19.8504
19.8517
19.8292
19.8303
19.8362
19.8373
19.8304
19.8291
19.8374
19.8361
19.8297
19.8297
19.8367
19.8367
19.8298
19.8298
19.8367
19.8367
19.8297
19.8297
19.8367
19.8367
19.8298
19.8298
19.8367
19.8367
19.8297
19.8297
19.8367
19.8367
19.8298
19.8298
19.8367
19.8367
19.8303
19.8292
19.8373
19.8362
19.8291
19.8304
19.8361
19.8374
19.8156
19.8166
19.8223
19.8234
19.8167
19.8155
19.8235
19.8223
19.8161
19.8161
19.8228
19.8228
19.8161
19.8161
19.8229
19.8229
19.816
19.816
19.8228
19.8228
19.8161
19.8161
19.8229
19.8229
19.8161
19.8161
19.8228
19.8228
19.8161
19.8161
19.8229
19.8229
19.8166
19.8155
19.8234
19.8223
19.8155
19.8167
19.8223
19.8235
19.8024
19.8034
19.8089
19.8099
19.8035
19.8023
19.8101
19.8088
19.8028
19.8028
19.8094
19.8094
19.8029
19.8029
19.8094
19.8095
19.8028
19.8028
19.8094
19.8094
19.8029
19.8029
19.8094
19.8094
19.8028
19.8028
19.8094
19.8094
19.8029
19.8029
19.8095
19.8094
19.8034
19.8023
19.8099
19.8089
19.8023
19.8035
19.8088
19.8101
19.7896
19.7906
19.7959
19.7969
19.7908
19.7896
19.7971
19.7959
19.7901
19.7901
19.7964
19.7964
19.7902
19.7902
19.7965
19.7965
19.7901
19.7901
19.7964
19.7964
19.7902
19.7902
19.7965
19.7965
19.7901
19.7901
19.7964
19.7964
19.7902
19.7902
19.7965
19.7965
19.7906
19.7896
19.7969
19.7959
19.7896
19.7908
19.7959
19.7971
19.7773
19.7783
19.7834
19.7844
19.7785
19.7773
19.7846
19.7834
19.7778
19.7778
19.7839
19.7839
19.7779
19.7779
19.784
19.784
19.7778
19.7778
19.7839
19.7839
19.7779
19.7779
19.784
19.784
19.7778
19.7778
19.7839
19.7839
19.7779
19.7779
19.784
19.784
19.7783
19.7773
19.7844
19.7834
19.7773
19.7785
19.7834
19.7846
19.7655
19.7665
19.7714
19.7723
19.7667
19.7655
19.7725
19.7713
19.766
19.766
19.7718
19.7718
19.7661
19.7661
19.7719
19.7719
19.766
19.766
19.7718
19.7718
19.7661
19.7661
19.7719
19.7719
19.766
19.766
19.7718
19.7718
19.7661
19.7661
19.7719
19.7719
19.7665
19.7655
19.7723
19.7714
19.7655
19.7667
19.7713
19.7725
19.7542
19.7551
19.7598
19.7607
19.7553
19.7541
19.761
19.7597
19.7546
19.7546
19.7603
19.7603
19.7547
19.7547
19.7603
19.7603
19.7546
19.7546
19.7603
19.7603
19.7547
19.7547
19.7603
19.7603
19.7546
19.7546
19.7603
19.7603
19.7547
19.7547
19.7603
19.7603
19.7551
19.7542
19.7607
19.7598
19.7541
19.7553
19.7597
19.761
19.7433
19.7443
19.7487
19.7496
19.7445
19.7433
19.7499
19.7487
19.7438
19.7438
19.7492
19.7492
19.7439
19.7439
19.7493
19.7493
19.7438
19.7438
19.7492
19.7492
19.7439
19.7439
19.7493
19.7493
19.7438
19.7438
19.7492
19.7492
19.7439
19.7439
19.7493
19.7493
19.7443
19.7433
19.7496
19.7487
19.7433
19.7445
19.7487
19.7499
19.733
19.7339
19.7381
19.739
19.7341
19.7329
19.7393
19.7381
19.7334
19.7334
19.7385
19.7385
19.7335
19.7335
19.7387
19.7387
19.7334
19.7334
19.7385
19.7385
19.7335
19.7335
19.7387
19.7387
19.7334
19.7334
19.7385
19.7385
19.7335
19.7335
19.7387
19.7387
19.7339
19.733
19.739
19.7381
19.7329
19.7341
19.7381
19.7393
19.7231
19.724
19.728
19.7289
19.7243
19.7231
19.7291
19.728
19.7236
19.7236
19.7284
19.7284
19.7237
19.7237
19.7286
19.7286
19.7236
19.7236
19.7284
19.7284
19.7237
19.7237
19.7286
19.7286
19.7236
19.7236
19.7284
19.7284
19.7237
19.7237
19.7286
19.7285
19.724
19.7231
19.7289
19.728
19.7231
19.7243
19.728
19.7291
19.7138
19.7146
19.7184
19.7193
19.7149
19.7137
19.7195
19.7183
19.7142
19.7142
19.7188
19.7188
19.7143
19.7143
19.7189
19.7189
19.7142
19.7142
19.7188
19.7188
19.7143
19.7143
19.7189
19.7189
19.7142
19.7142
19.7188
19.7188
19.7143
19.7143
19.7189
19.7189
19.7146
19.7138
19.7193
19.7184
19.7137
19.7149
19.7183
19.7195
19.7049
19.7058
19.7093
19.7101
19.7061
19.7049
19.7104
19.7092
19.7053
19.7053
19.7097
19.7097
19.7055
19.7055
19.7098
19.7098
19.7053
19.7053
19.7097
19.7097
19.7055
19.7055
19.7098
19.7098
19.7053
19.7053
19.7097
19.7097
19.7055
19.7055
19.7098
19.7098
19.7058
19.7049
19.7101
19.7093
19.7049
19.7061
19.7092
19.7104
19.6966
19.6974
19.7007
19.7015
19.6977
19.6965
19.7018
19.7007
19.697
19.697
19.7011
19.7011
19.6971
19.6971
19.7013
19.7013
19.697
19.697
19.7011
19.7011
19.6971
19.6971
19.7012
19.7012
19.697
19.697
19.7011
19.7011
19.6971
19.6971
19.7013
19.7012
19.6974
19.6966
19.7015
19.7007
19.6965
19.6977
19.7007
19.7018
19.6887
19.6895
19.6926
19.6934
19.6899
19.6887
19.6938
19.6926
19.6891
19.6891
19.693
19.693
19.6893
19.6893
19.6932
19.6932
19.6891
19.6891
19.693
19.693
19.6893
19.6893
19.6932
19.6932
19.6891
19.6891
19.693
19.693
19.6893
19.6893
19.6932
19.6932
19.6895
19.6887
19.6934
19.6926
19.6887
19.6899
19.6926
19.6938
19.6814
19.6822
19.685
19.6858
19.6826
19.6814
19.6862
19.685
19.6818
19.6818
19.6854
19.6854
19.682
19.682
19.6856
19.6856
19.6818
19.6818
19.6854
19.6854
19.682
19.682
19.6856
19.6856
19.6818
19.6818
19.6854
19.6854
19.682
19.682
19.6856
19.6856
19.6822
19.6814
19.6858
19.685
19.6814
19.6826
19.685
19.6862
19.6746
19.6754
19.6779
19.6787
19.6757
19.6746
19.6791
19.6779
19.675
19.675
19.6783
19.6783
19.6752
19.6752
19.6785
19.6785
19.675
19.675
19.6783
19.6783
19.6752
19.6752
19.6785
19.6785
19.675
19.675
19.6783
19.6783
19.6752
19.6752
19.6785
19.6785
19.6754
19.6746
19.6787
19.6779
19.6746
19.6757
19.6779
19.6791
19.6683
19.669
19.6714
19.6721
19.6694
19.6683
19.6725
19.6714
19.6686
19.6686
19.6717
19.6717
19.6688
19.6688
19.6719
19.6719
19.6686
19.6686
19.6717
19.6717
19.6688
19.6688
19.6719
19.6719
19.6686
19.6686
19.6717
19.6717
19.6688
19.6688
19.6719
19.6719
19.669
19.6683
19.6721
19.6714
19.6683
19.6694
19.6713
19.6725
19.6624
19.6632
19.6653
19.666
19.6636
19.6624
19.6664
19.6653
19.6628
19.6628
19.6657
19.6656
19.663
19.663
19.6659
19.6659
19.6628
19.6628
19.6656
19.6656
19.663
19.663
19.6659
19.6659
19.6628
19.6628
19.6656
19.6657
19.663
19.663
19.6659
19.6659
19.6632
19.6624
19.666
19.6653
19.6624
19.6636
19.6653
19.6664
19.6571
19.6578
19.6597
19.6604
19.6582
19.6571
19.6609
19.6597
19.6575
19.6574
19.6601
19.6601
19.6577
19.6577
19.6603
19.6603
19.6574
19.6574
19.66
19.66
19.6577
19.6577
19.6603
19.6603
19.6574
19.6575
19.66
19.6601
19.6577
19.6577
19.6603
19.6603
19.6578
19.6571
19.6604
19.6597
19.6571
19.6582
19.6597
19.6609
19.6522
19.653
19.6546
19.6553
19.6534
19.6522
19.6557
19.6546
19.6526
19.6526
19.655
19.6549
19.6528
19.6528
19.6552
19.6552
19.6525
19.6525
19.6549
19.6549
19.6528
19.6528
19.6552
19.6552
19.6526
19.6526
19.6549
19.655
19.6528
19.6528
19.6552
19.6552
19.653
19.6522
19.6553
19.6546
19.6522
19.6534
19.6546
19.6557
19.6478
19.6486
19.6499
19.6507
19.649
19.6479
19.6511
19.65
19.6482
19.6481
19.6503
19.6503
19.6484
19.6484
19.6506
19.6505
19.6481
19.6481
19.6503
19.6503
19.6484
19.6484
19.6505
19.6505
19.6481
19.6482
19.6503
19.6503
19.6484
19.6484
19.6505
19.6506
19.6486
19.6478
19.6507
19.6499
19.6479
19.649
19.65
19.6511
19.6438
19.6446
19.6457
19.6465
19.645
19.6439
19.6469
19.6458
19.6442
19.6442
19.6462
19.6461
19.6445
19.6445
19.6464
19.6464
19.6442
19.6442
19.6461
19.6461
19.6444
19.6444
19.6464
19.6464
19.6442
19.6442
19.6461
19.6461
19.6445
19.6445
19.6464
19.6464
19.6446
19.6438
19.6465
19.6457
19.6439
19.645
19.6458
19.6469
19.6403
19.6411
19.642
19.6428
19.6415
19.6405
19.6432
19.6421
19.6407
19.6407
19.6424
19.6424
19.641
19.641
19.6427
19.6427
19.6407
19.6407
19.6424
19.6424
19.6409
19.6409
19.6426
19.6426
19.6407
19.6407
19.6424
19.6424
19.641
19.641
19.6427
19.6427
19.6411
19.6403
19.6428
19.642
19.6404
19.6415
19.6421
19.6432
19.6372
19.6381
19.6387
19.6395
19.6384
19.6374
19.6399
19.6389
19.6376
19.6376
19.6391
19.6391
19.6379
19.6379
19.6394
19.6394
19.6376
19.6376
19.6391
19.6391
19.6379
19.6379
19.6394
19.6394
19.6376
19.6376
19.6391
19.6391
19.6379
19.6379
19.6394
19.6394
19.6381
19.6372
19.6395
19.6387
19.6374
19.6384
19.6389
19.6399
20.0864
20.0836
20.096
20.0941
20.0869
20.083
20.0962
20.0937
20.0848
20.0849
20.0949
20.095
20.0847
20.0848
20.0949
20.0949
20.0849
20.0849
20.095
20.095
20.0848
20.0848
20.0949
20.0949
20.0849
20.0848
20.095
20.0949
20.0848
20.0847
20.0949
20.0949
20.0836
20.0864
20.0941
20.096
20.083
20.0869
20.0937
20.0962
20.0659
20.0644
20.076
20.074
20.0666
20.0637
20.0767
20.0733
20.0648
20.065
20.0748
20.0749
20.0648
20.065
20.0747
20.0749
20.065
20.065
20.0749
20.0749
20.065
20.065
20.0749
20.0749
20.065
20.0648
20.0749
20.0748
20.065
20.0648
20.0749
20.0747
20.0644
20.0659
20.074
20.076
20.0637
20.0666
20.0733
20.0767
20.046
20.0454
20.0559
20.0549
20.0468
20.0446
20.0567
20.0541
20.0454
20.0455
20.055
20.0552
20.0453
20.0455
20.055
20.0552
20.0455
20.0455
20.0552
20.0552
20.0455
20.0455
20.0552
20.0552
20.0455
20.0454
20.0552
20.055
20.0455
20.0453
20.0552
20.055
20.0454
20.046
20.0549
20.0559
20.0446
20.0468
20.0541
20.0567
20.0267
20.0265
20.0363
20.0359
20.0275
20.0258
20.0371
20.0352
20.0263
20.0264
20.0358
20.0359
20.0263
20.0264
20.0358
20.0359
20.0265
20.0265
20.0359
20.0359
20.0265
20.0265
20.036
20.036
20.0264
20.0263
20.0359
20.0358
20.0264
20.0263
20.0359
20.0358
20.0265
20.0267
20.0359
20.0363
20.0258
20.0275
20.0352
20.0371
20.0079
20.008
20.0173
20.0172
20.0086
20.0074
20.018
20.0166
20.0077
20.0078
20.017
20.017
20.0077
20.0078
20.017
20.0171
20.0078
20.0078
20.0171
20.0171
20.0078
20.0078
20.0171
20.0171
20.0078
20.0077
20.017
20.017
20.0078
20.0077
20.0171
20.017
20.008
20.0079
20.0172
20.0173
20.0074
20.0086
20.0166
20.018
19.9896
19.9898
19.9987
19.9989
19.9903
19.9892
19.9994
19.9982
19.9895
19.9895
19.9985
19.9986
19.9895
19.9895
19.9986
19.9986
19.9895
19.9895
19.9986
19.9986
19.9896
19.9896
19.9986
19.9986
19.9895
19.9895
19.9986
19.9985
19.9895
19.9895
19.9986
19.9986
19.9898
19.9896
19.9989
19.9987
19.9892
19.9903
19.9982
19.9994
19.9717
19.972
19.9806
19.9808
19.9723
19.9714
19.9812
19.9803
19.9717
19.9717
19.9805
19.9805
19.9717
19.9717
19.9806
19.9806
19.9717
19.9717
19.9806
19.9806
19.9717
19.9717
19.9806
19.9806
19.9717
19.9717
19.9805
19.9805
19.9717
19.9717
19.9806
19.9806
19.972
19.9717
19.9808
19.9806
19.9714
19.9723
19.9803
19.9812
19.9542
19.9545
19.9629
19.9632
19.9548
19.954
19.9635
19.9627
19.9542
19.9542
19.9629
19.9629
19.9543
19.9543
19.9629
19.9629
19.9542
19.9542
19.9629
19.9629
19.9543
19.9543
19.9629
19.9629
19.9542
19.9542
19.9629
19.9629
19.9543
19.9543
19.9629
19.9629
19.9545
19.9542
19.9632
19.9629
19.954
19.9548
19.9627
19.9635
19.9371
19.9374
19.9456
19.9459
19.9377
19.937
19.9462
19.9455
19.9372
19.9372
19.9457
19.9457
19.9373
19.9372
19.9457
19.9457
19.9372
19.9372
19.9457
19.9457
19.9372
19.9372
19.9457
19.9457
19.9372
19.9372
19.9457
19.9457
19.9372
19.9373
19.9457
19.9457
19.9374
19.9371
19.9459
19.9456
19.937
19.9377
19.9455
19.9462
19.9205
19.9208
19.9288
19.929
19.921
19.9204
19.9293
19.9286
19.9206
19.9206
19.9289
19.9288
19.9206
19.9206
19.9289
19.9289
19.9206
19.9206
19.9288
19.9288
19.9206
19.9206
19.9289
19.9289
19.9206
19.9206
19.9288
19.9289
19.9206
19.9206
19.9289
19.9289
19.9208
19.9205
19.929
19.9288
19.9204
19.921
19.9286
19.9293
19.9043
19.9045
19.9123
19.9126
19.9048
19.9042
19.9129
19.9122
19.9044
19.9043
19.9124
19.9124
19.9044
19.9044
19.9125
19.9125
19.9043
19.9043
19.9124
19.9124
19.9044
19.9044
19.9125
19.9125
19.9043
19.9044
19.9124
19.9124
19.9044
19.9044
19.9125
19.9125
19.9045
19.9043
19.9126
19.9123
19.9042
19.9048
19.9122
19.9129
19.8885
19.8887
19.8963
19.8965
19.8889
19.8884
19.8968
19.8962
19.8885
19.8885
19.8964
19.8964
19.8886
19.8886
19.8965
19.8965
19.8885
19.8885
19.8964
19.8964
19.8886
19.8886
19.8965
19.8965
19.8885
19.8885
19.8964
19.8964
19.8886
19.8886
19.8965
19.8965
19.8887
19.8885
19.8965
19.8963
19.8884
19.8889
19.8962
19.8968
19.8731
19.8732
19.8807
19.8809
19.8735
19.873
19.8812
19.8806
19.8731
19.8731
19.8808
19.8808
19.8732
19.8732
19.8809
19.8809
19.8731
19.8731
19.8808
19.8808
19.8732
19.8732
19.8809
19.8809
19.8731
19.8731
19.8808
19.8808
19.8732
19.8732
19.8809
19.8809
19.8732
19.8731
19.8809
19.8807
19.873
19.8735
19.8806
19.8812
19.8581
19.8582
19.8655
19.8657
19.8585
19.8581
19.866
19.8655
19.8581
19.8581
19.8656
19.8656
19.8583
19.8583
19.8657
19.8657
19.8581
19.8581
19.8656
19.8656
19.8583
19.8582
19.8657
19.8657
19.8581
19.8581
19.8656
19.8656
19.8583
19.8583
19.8657
19.8657
19.8582
19.8581
19.8657
19.8655
19.8581
19.8585
19.8655
19.866
19.8435
19.8437
19.8508
19.8509
19.844
19.8435
19.8512
19.8507
19.8436
19.8436
19.8508
19.8508
19.8437
19.8437
19.8509
19.8509
19.8436
19.8436
19.8508
19.8508
19.8437
19.8437
19.8509
19.8509
19.8436
19.8436
19.8508
19.8508
19.8437
19.8437
19.8509
19.8509
19.8437
19.8435
19.8509
19.8508
19.8435
19.844
19.8507
19.8512
19.8294
19.8295
19.8364
19.8365
19.8298
19.8294
19.8368
19.8364
19.8295
19.8295
19.8365
19.8365
19.8296
19.8296
19.8366
19.8366
19.8295
19.8295
19.8365
19.8365
19.8296
19.8296
19.8366
19.8366
19.8295
19.8295
19.8365
19.8365
19.8296
19.8296
19.8366
19.8366
19.8295
19.8294
19.8365
19.8364
19.8294
19.8298
19.8364
19.8368
19.8157
19.8158
19.8225
19.8226
19.8161
19.8158
19.8229
19.8226
19.8158
19.8158
19.8226
19.8226
19.8159
19.8159
19.8227
19.8227
19.8158
19.8158
19.8226
19.8226
19.8159
19.8159
19.8227
19.8227
19.8158
19.8158
19.8226
19.8226
19.8159
19.8159
19.8227
19.8227
19.8158
19.8157
19.8226
19.8225
19.8158
19.8161
19.8226
19.8229
19.8025
19.8026
19.8091
19.8091
19.8029
19.8026
19.8095
19.8091
19.8025
19.8025
19.8091
19.8091
19.8027
19.8027
19.8093
19.8093
19.8025
19.8025
19.8091
19.8091
19.8027
19.8027
19.8093
19.8093
19.8025
19.8025
19.8091
19.8091
19.8027
19.8027
19.8093
19.8093
19.8026
19.8025
19.8091
19.8091
19.8026
19.8029
19.8091
19.8095
19.7897
19.7898
19.796
19.7961
19.7901
19.7898
19.7964
19.7961
19.7897
19.7897
19.7961
19.7961
19.7899
19.7899
19.7963
19.7963
19.7897
19.7897
19.7961
19.7961
19.7899
19.7899
19.7963
19.7963
19.7897
19.7897
19.7961
19.7961
19.7899
19.7899
19.7963
19.7963
19.7898
19.7897
19.7961
19.796
19.7898
19.7901
19.7961
19.7964
19.7774
19.7774
19.7835
19.7835
19.7778
19.7775
19.7839
19.7836
19.7774
19.7774
19.7835
19.7835
19.7776
19.7776
19.7837
19.7837
19.7774
19.7774
19.7835
19.7835
19.7776
19.7776
19.7837
19.7837
19.7774
19.7774
19.7835
19.7835
19.7776
19.7776
19.7837
19.7837
19.7774
19.7774
19.7835
19.7835
19.7775
19.7778
19.7836
19.7839
19.7655
19.7656
19.7714
19.7714
19.7659
19.7657
19.7718
19.7716
19.7655
19.7655
19.7714
19.7714
19.7658
19.7658
19.7717
19.7717
19.7655
19.7655
19.7714
19.7714
19.7658
19.7658
19.7717
19.7717
19.7655
19.7655
19.7714
19.7714
19.7658
19.7658
19.7717
19.7716
19.7655
19.7655
19.7714
19.7714
19.7657
19.7659
19.7716
19.7718
19.7541
19.7542
19.7597
19.7598
19.7545
19.7544
19.7602
19.76
19.7541
19.7541
19.7598
19.7598
19.7544
19.7544
19.76
19.7601
19.7541
19.7541
19.7598
19.7598
19.7544
19.7544
19.7601
19.7601
19.7541
19.7541
19.7598
19.7598
19.7544
19.7544
19.7601
19.76
19.7542
19.7541
19.7598
19.7597
19.7544
19.7545
19.76
19.7602
19.7432
19.7432
19.7486
19.7486
19.7436
19.7435
19.749
19.7489
19.7432
19.7432
19.7486
19.7486
19.7436
19.7436
19.7489
19.7489
19.7432
19.7432
19.7486
19.7486
19.7436
19.7436
19.7489
19.7489
19.7432
19.7432
19.7486
19.7486
19.7436
19.7435
19.7489
19.7489
19.7432
19.7432
19.7486
19.7486
19.7435
19.7436
19.7489
19.749
19.7328
19.7328
19.7379
19.738
19.7332
19.7331
19.7384
19.7382
19.7328
19.7328
19.7379
19.7379
19.7332
19.7332
19.7383
19.7383
19.7328
19.7328
19.7379
19.7379
19.7332
19.7332
19.7383
19.7383
19.7328
19.7328
19.7379
19.7379
19.7332
19.7332
19.7383
19.7383
19.7328
19.7328
19.738
19.7379
19.7331
19.7332
19.7382
19.7384
19.7228
19.7229
19.7277
19.7278
19.7233
19.7232
19.7282
19.7281
19.7229
19.7229
19.7278
19.7278
19.7233
19.7233
19.7282
19.7282
19.7229
19.7229
19.7278
19.7278
19.7233
19.7233
19.7282
19.7282
19.7229
19.7229
19.7278
19.7278
19.7233
19.7233
19.7282
19.7282
19.7229
19.7228
19.7278
19.7277
19.7232
19.7233
19.7281
19.7282
19.7134
19.7135
19.7181
19.7181
19.7139
19.7139
19.7186
19.7185
19.7134
19.7134
19.7181
19.7181
19.7139
19.7139
19.7185
19.7185
19.7134
19.7134
19.7181
19.7181
19.7139
19.7139
19.7185
19.7185
19.7134
19.7134
19.7181
19.7181
19.7139
19.7139
19.7185
19.7185
19.7135
19.7134
19.7181
19.7181
19.7139
19.7139
19.7185
19.7186
19.7045
19.7045
19.7089
19.7089
19.705
19.705
19.7094
19.7094
19.7045
19.7045
19.7089
19.7089
19.705
19.705
19.7094
19.7094
19.7045
19.7045
19.7089
19.7089
19.705
19.705
19.7094
19.7094
19.7045
19.7045
19.7089
19.7089
19.705
19.705
19.7094
19.7094
19.7045
19.7045
19.7089
19.7089
19.705
19.705
19.7093
19.7094
19.6961
19.6961
19.7002
19.7003
19.6967
19.6966
19.7008
19.7007
19.6961
19.6961
19.7002
19.7002
19.6966
19.6966
19.7007
19.7007
19.6961
19.6961
19.7002
19.7002
19.6966
19.6966
19.7007
19.7007
19.6961
19.6961
19.7002
19.7002
19.6966
19.6966
19.7007
19.7007
19.6961
19.6961
19.7003
19.7002
19.6966
19.6967
19.7007
19.7008
19.6882
19.6882
19.6921
19.6921
19.6888
19.6887
19.6927
19.6926
19.6882
19.6882
19.6921
19.6921
19.6887
19.6888
19.6926
19.6926
19.6882
19.6882
19.6921
19.6921
19.6887
19.6887
19.6926
19.6926
19.6882
19.6882
19.6921
19.6921
19.6887
19.6887
19.6926
19.6926
19.6882
19.6882
19.6921
19.6921
19.6887
19.6888
19.6926
19.6927
19.6808
19.6808
19.6844
19.6844
19.6814
19.6814
19.685
19.685
19.6808
19.6808
19.6844
19.6844
19.6814
19.6814
19.685
19.685
19.6808
19.6808
19.6844
19.6844
19.6814
19.6814
19.685
19.685
19.6808
19.6808
19.6844
19.6844
19.6814
19.6814
19.685
19.685
19.6808
19.6808
19.6844
19.6844
19.6814
19.6814
19.685
19.685
19.6739
19.6739
19.6772
19.6773
19.6745
19.6745
19.6779
19.6779
19.6739
19.6739
19.6773
19.6773
19.6745
19.6745
19.6779
19.6779
19.6739
19.6739
19.6773
19.6773
19.6745
19.6745
19.6779
19.6779
19.6739
19.6739
19.6773
19.6773
19.6745
19.6745
19.6779
19.6779
19.6739
19.6739
19.6773
19.6772
19.6745
19.6745
19.6779
19.6779
19.6675
19.6675
19.6706
19.6707
19.6682
19.6682
19.6713
19.6713
19.6675
19.6675
19.6706
19.6706
19.6682
19.6682
19.6713
19.6713
19.6675
19.6675
19.6706
19.6706
19.6682
19.6682
19.6713
19.6713
19.6675
19.6675
19.6706
19.6706
19.6682
19.6682
19.6713
19.6713
19.6675
19.6675
19.6707
19.6706
19.6682
19.6682
19.6713
19.6713
19.6616
19.6616
19.6644
19.6645
19.6623
19.6623
19.6652
19.6652
19.6616
19.6616
19.6645
19.6645
19.6623
19.6623
19.6652
19.6652
19.6616
19.6616
19.6645
19.6645
19.6623
19.6623
19.6652
19.6652
19.6616
19.6616
19.6645
19.6645
19.6623
19.6623
19.6652
19.6652
19.6616
19.6616
19.6645
19.6644
19.6623
19.6623
19.6652
19.6652
19.6561
19.6562
19.6588
19.6589
19.6569
19.657
19.6595
19.6596
19.6562
19.6562
19.6588
19.6588
19.6569
19.6569
19.6596
19.6596
19.6562
19.6562
19.6588
19.6588
19.6569
19.6569
19.6595
19.6595
19.6562
19.6562
19.6588
19.6588
19.6569
19.6569
19.6596
19.6596
19.6562
19.6561
19.6589
19.6588
19.657
19.6569
19.6596
19.6595
19.6512
19.6513
19.6536
19.6537
19.652
19.6521
19.6544
19.6545
19.6513
19.6512
19.6537
19.6537
19.6521
19.652
19.6544
19.6544
19.6512
19.6512
19.6536
19.6536
19.652
19.652
19.6544
19.6544
19.6512
19.6513
19.6537
19.6537
19.652
19.6521
19.6544
19.6544
19.6513
19.6512
19.6537
19.6536
19.6521
19.652
19.6545
19.6544
19.6467
19.6469
19.6489
19.649
19.6476
19.6477
19.6497
19.6498
19.6468
19.6468
19.649
19.649
19.6476
19.6476
19.6498
19.6498
19.6468
19.6468
19.6489
19.6489
19.6476
19.6476
19.6498
19.6497
19.6468
19.6468
19.649
19.649
19.6476
19.6476
19.6498
19.6498
19.6469
19.6467
19.649
19.6489
19.6477
19.6476
19.6498
19.6497
19.6427
19.6429
19.6447
19.6448
19.6436
19.6437
19.6455
19.6456
19.6428
19.6428
19.6448
19.6447
19.6437
19.6436
19.6456
19.6456
19.6428
19.6428
19.6447
19.6447
19.6436
19.6436
19.6456
19.6456
19.6428
19.6428
19.6447
19.6448
19.6436
19.6437
19.6456
19.6456
19.6429
19.6427
19.6448
19.6447
19.6437
19.6436
19.6456
19.6455
19.6392
19.6394
19.6409
19.6411
19.64
19.6402
19.6418
19.6419
19.6393
19.6392
19.641
19.641
19.6401
19.6401
19.6419
19.6418
19.6392
19.6392
19.6409
19.6409
19.6401
19.6401
19.6418
19.6418
19.6392
19.6393
19.641
19.641
19.6401
19.6401
19.6418
19.6418
19.6394
19.6392
19.6411
19.6409
19.6402
19.64
19.6419
19.6418
19.636
19.6363
19.6375
19.6378
19.6369
19.6371
19.6384
19.6386
19.6362
19.6361
19.6377
19.6376
19.637
19.637
19.6385
19.6385
19.6361
19.6361
19.6376
19.6376
19.637
19.637
19.6385
19.6385
19.6361
19.6362
19.6376
19.6377
19.637
19.637
19.6385
19.6385
19.6363
19.636
19.6378
19.6375
19.6371
19.6369
19.6386
19.6384
20.0865
20.0834
20.0961
20.0939
20.0867
20.0832
20.0962
20.0938
20.0848
20.0849
20.0949
20.095
20.0847
20.0849
20.0949
20.0949
20.0849
20.0849
20.095
20.095
20.0849
20.0849
20.0949
20.0949
20.0849
20.0848
20.095
20.0949
20.0849
20.0847
20.0949
20.0949
20.0834
20.0865
20.0939
20.0961
20.0832
20.0867
20.0938
20.0962
20.0661
20.0642
20.0762
20.0738
20.0663
20.064
20.0764
20.0736
20.0648
20.065
20.0747
20.0749
20.0648
20.065
20.0747
20.0749
20.065
20.065
20.0749
20.0749
20.065
20.065
20.0749
20.0749
20.065
20.0648
20.0749
20.0747
20.065
20.0648
20.0749
20.0747
20.0642
20.0661
20.0738
20.0762
20.064
20.0663
20.0736
20.0764
20.0462
20.0451
20.0561
20.0546
20.0465
20.0449
20.0563
20.0544
20.0453
20.0455
20.055
20.0552
20.0453
20.0455
20.055
20.0552
20.0455
20.0455
20.0552
20.0552
20.0455
20.0455
20.0552
20.0552
20.0455
20.0453
20.0552
20.055
20.0455
20.0453
20.0552
20.055
20.0451
20.0462
20.0546
20.0561
20.0449
20.0465
20.0544
20.0563
20.0269
20.0263
20.0365
20.0356
20.0271
20.0262
20.0367
20.0355
20.0263
20.0264
20.0357
20.0359
20.0263
20.0264
20.0358
20.0359
20.0264
20.0264
20.0359
20.0359
20.0264
20.0264
20.0359
20.0359
20.0264
20.0263
20.0359
20.0357
20.0264
20.0263
20.0359
20.0358
20.0263
20.0269
20.0356
20.0365
20.0262
20.0271
20.0355
20.0367
20.0081
20.0077
20.0174
20.0169
20.0083
20.0077
20.0176
20.0169
20.0076
20.0077
20.0169
20.017
20.0077
20.0077
20.0169
20.017
20.0077
20.0077
20.017
20.017
20.0078
20.0078
20.0171
20.0171
20.0077
20.0076
20.017
20.0169
20.0077
20.0077
20.017
20.0169
20.0077
20.0081
20.0169
20.0174
20.0077
20.0083
20.0169
20.0176
19.9897
19.9895
19.9988
19.9986
19.9899
19.9895
19.999
19.9985
19.9894
19.9894
19.9985
19.9985
19.9894
19.9895
19.9985
19.9985
19.9894
19.9894
19.9985
19.9985
19.9895
19.9895
19.9986
19.9986
19.9894
19.9894
19.9985
19.9985
19.9895
19.9894
19.9985
19.9985
19.9895
19.9897
19.9986
19.9988
19.9895
19.9899
19.9985
19.999
19.9718
19.9717
19.9807
19.9805
19.9719
19.9717
19.9808
19.9805
19.9716
19.9716
19.9804
19.9804
19.9716
19.9716
19.9805
19.9805
19.9716
19.9716
19.9805
19.9805
19.9716
19.9716
19.9805
19.9805
19.9716
19.9716
19.9804
19.9804
19.9716
19.9716
19.9805
19.9805
19.9717
19.9718
19.9805
19.9807
19.9717
19.9719
19.9805
19.9808
19.9543
19.9542
19.963
19.9629
19.9544
19.9543
19.9631
19.9629
19.9541
19.9541
19.9628
19.9628
19.9542
19.9542
19.9629
19.9628
19.9541
19.9541
19.9628
19.9628
19.9542
19.9542
19.9629
19.9629
19.9541
19.9541
19.9628
19.9628
19.9542
19.9542
19.9628
19.9629
19.9542
19.9543
19.9629
19.963
19.9543
19.9544
19.9629
19.9631
19.9371
19.9371
19.9457
19.9456
19.9373
19.9372
19.9458
19.9457
19.9371
19.937
19.9455
19.9455
19.9371
19.9371
19.9456
19.9456
19.937
19.937
19.9455
19.9455
19.9371
19.9371
19.9456
19.9456
19.937
19.9371
19.9455
19.9455
19.9371
19.9371
19.9456
19.9456
19.9371
19.9371
19.9456
19.9457
19.9372
19.9373
19.9457
19.9458
19.9205
19.9205
19.9287
19.9288
19.9206
19.9206
19.9289
19.9288
19.9204
19.9204
19.9287
19.9287
19.9205
19.9205
19.9288
19.9288
19.9204
19.9204
19.9287
19.9287
19.9205
19.9205
19.9287
19.9287
19.9204
19.9204
19.9287
19.9287
19.9205
19.9205
19.9288
19.9288
19.9205
19.9205
19.9287
19.9287
19.9206
19.9206
19.9288
19.9289
19.9042
19.9042
19.9123
19.9123
19.9043
19.9043
19.9124
19.9124
19.9041
19.9041
19.9122
19.9122
19.9043
19.9042
19.9123
19.9123
19.9041
19.9041
19.9122
19.9122
19.9042
19.9042
19.9123
19.9123
19.9041
19.9041
19.9122
19.9122
19.9042
19.9043
19.9123
19.9123
19.9042
19.9042
19.9123
19.9123
19.9043
19.9043
19.9124
19.9124
19.8883
19.8883
19.8962
19.8962
19.8884
19.8885
19.8963
19.8963
19.8883
19.8883
19.8962
19.8961
19.8884
19.8884
19.8963
19.8963
19.8883
19.8883
19.8961
19.8961
19.8884
19.8884
19.8963
19.8963
19.8883
19.8883
19.8961
19.8962
19.8884
19.8884
19.8963
19.8963
19.8883
19.8883
19.8962
19.8962
19.8885
19.8884
19.8963
19.8963
19.8728
19.8729
19.8805
19.8806
19.873
19.8731
19.8807
19.8807
19.8728
19.8728
19.8805
19.8805
19.873
19.873
19.8807
19.8807
19.8728
19.8728
19.8805
19.8805
19.873
19.873
19.8806
19.8806
19.8728
19.8728
19.8805
19.8805
19.873
19.873
19.8806
19.8807
19.8729
19.8728
19.8806
19.8805
19.8731
19.873
19.8807
19.8807
19.8578
19.8579
19.8653
19.8653
19.858
19.858
19.8654
19.8655
19.8578
19.8578
19.8653
19.8653
19.858
19.858
19.8654
19.8654
19.8578
19.8578
19.8653
19.8653
19.858
19.858
19.8654
19.8654
19.8578
19.8578
19.8653
19.8653
19.858
19.858
19.8654
19.8654
19.8579
19.8578
19.8653
19.8653
19.858
19.858
19.8655
19.8654
19.8432
19.8432
19.8504
19.8505
19.8434
19.8435
19.8506
19.8507
19.8432
19.8432
19.8505
19.8504
19.8434
19.8434
19.8507
19.8506
19.8432
19.8432
19.8504
19.8504
19.8434
19.8434
19.8506
19.8506
19.8432
19.8432
19.8504