/*--------------------------------*- C++ -*----------------------------------*\
  =========                 |
  \\      /  F ield         | OpenFOAM: The Open Source CFD Toolbox
   \\    /   O peration     | Website:  https://openfoam.org
    \\  /    A nd           | Version:  9
     \\/     M anipulation  |
\*---------------------------------------------------------------------------*/
FoamFile
{
    format      ascii;
    class       surfaceScalarField;
    location    "0.05";
    object      phi;
}
// * * * * * * * * * * * * * * * * * * * * * * * * * * * * * * * * * * * * * //

dimensions      [0 3 -1 0 0 0 0];

internalField   nonuniform List<scalar> 
104044
(
4.28451e-08
-6.019e-05
1.44495e-07
5.99889e-05
1.37698e-08
-5.92048e-05
-1.1546e-07
-1.69234e-08
5.9359e-05
2.09853e-08
2.8833e-08
1.0351e-07
9.63555e-09
-3.67235e-07
-1.22695e-08
1.64123e-09
8.74905e-08
-5.95682e-05
5.96252e-05
-5.92495e-05
-3.9543e-08
5.92611e-05
5.99384e-08
-2.85229e-08
-1.92279e-09
-5.97737e-05
3.14106e-08
5.97075e-05
1.97436e-08
-5.97426e-05
2.44063e-08
-1.57785e-10
5.96984e-05
1.79861e-08
-8.66137e-10
-1.28167e-07
1.12486e-08
-1.29894e-07
-5.25975e-11
1.00346e-08
-2.02567e-09
-5.95004e-05
5.94943e-05
-5.94555e-05
-1.53648e-10
5.9478e-05
-9.58279e-10
-4.86824e-11
3.51793e-13
-5.9735e-05
2.44097e-08
5.96925e-05
1.79101e-08
-5.9735e-05
2.44095e-08
1.58451e-10
5.96925e-05
1.79102e-08
1.01655e-13
-1.29862e-07
9.9668e-09
-1.29862e-07
5.27845e-11
9.9668e-09
3.26571e-13
-5.94478e-05
5.9472e-05
-5.94478e-05
1.54343e-10
5.9472e-05
9.40714e-14
4.88924e-11
1.92331e-09
-5.97426e-05
2.44056e-08
5.96984e-05
1.79867e-08
-5.97737e-05
3.1409e-08
1.69236e-08
5.97076e-05
1.97449e-08
8.66286e-10
-1.29894e-07
1.00345e-08
-1.28168e-07
1.22695e-08
1.12488e-08
2.02616e-09
-5.94555e-05
5.9478e-05
-5.95004e-05
3.95431e-08
5.94943e-05
9.58426e-10
2.85229e-08
-4.28455e-08
-5.92048e-05
-1.15461e-07
5.93591e-05
2.09871e-08
-6.019e-05
1.44492e-07
5.99889e-05
1.37717e-08
-2.88332e-08
-3.67235e-07
1.64168e-09
1.03509e-07
9.63645e-09
-8.74908e-08
-5.92495e-05
5.92611e-05
-5.95682e-05
5.96252e-05
-5.99386e-08
1.27411e-08
-5.98687e-05
3.25705e-08
5.97851e-05
3.82873e-08
-5.94445e-05
-7.0681e-08
3.65082e-10
5.94927e-05
3.48674e-08
2.53005e-08
6.84079e-08
2.6441e-08
-7.94633e-08
-6.85889e-09
2.61443e-08
6.8267e-08
-5.96168e-05
5.95811e-05
-5.92914e-05
-2.78491e-08
5.93169e-05
7.67229e-08
-3.30703e-08
-3.61813e-09
-5.96625e-05
-2.42103e-09
5.96274e-05
4.15044e-08
-5.96687e-05
-1.33532e-08
-4.27571e-10
5.96404e-05
3.85228e-08
-1.97506e-09
1.0531e-08
2.96425e-08
4.02624e-10
-2.68417e-10
2.75912e-08
-3.02744e-09
-5.94743e-05
5.94471e-05
-5.94761e-05
-4.06543e-10
5.94601e-05
-2.58862e-09
-2.73211e-10
7.40343e-13
-5.96644e-05
-1.33411e-08
5.96388e-05
3.8601e-08
-5.96645e-05
-1.33415e-08
4.2927e-10
5.96388e-05
3.86015e-08
5.40825e-13
3.53676e-10
2.7467e-08
3.53433e-10
2.69533e-10
2.74673e-08
6.95202e-13
-5.94721e-05
5.94583e-05
-5.94721e-05
4.08183e-10
5.94583e-05
5.15037e-13
2.74372e-10
3.6198e-09
-5.96687e-05
-1.33545e-08
5.96404e-05
3.85242e-08
-5.96625e-05
-2.42228e-09
-3.64191e-10
5.96274e-05
4.15065e-08
1.97582e-09
4.01807e-10
2.75921e-08
1.05295e-08
6.85938e-09
2.96437e-08
3.02862e-09
-5.94761e-05
5.94602e-05
-5.94743e-05
2.78498e-08
5.94471e-05
2.58949e-09
3.30706e-08
-1.27405e-08
-5.94445e-05
-7.06827e-08
5.94927e-05
3.48695e-08
-5.98687e-05
3.25684e-08
5.97851e-05
3.82891e-08
-2.53006e-08
-7.94648e-08
2.61446e-08
6.84053e-08
2.64431e-08
-6.82666e-08
-5.92914e-05
5.93169e-05
-5.96169e-05
5.95812e-05
-7.67231e-08
-3.36294e-09
-5.97175e-05
2.78238e-09
5.96568e-05
6.12087e-08
-5.95137e-05
-7.35487e-08
1.10824e-08
5.95159e-05
5.69467e-08
3.61702e-09
1.46749e-08
4.93678e-08
-6.98717e-08
6.98091e-09
4.55272e-08
5.3156e-08
-5.95361e-05
5.94857e-05
-5.93298e-05
-1.95383e-08
5.93289e-05
5.974e-08
-2.30287e-08
-2.66633e-09
-5.95952e-05
-1.61209e-08
5.95617e-05
6.33836e-08
-5.96116e-05
-2.97168e-08
-5.68337e-10
5.95786e-05
6.05787e-08
-2.9667e-09
-9.6664e-09
5.18174e-08
-2.24246e-08
-5.16753e-10
4.87376e-08
-2.94295e-09
-5.94175e-05
5.93848e-05
-5.94352e-05
-5.74984e-10
5.94031e-05
-3.08033e-09
-5.17828e-10
1.01774e-12
-5.9612e-05
-2.97014e-08
5.95807e-05
6.03789e-08
-5.9612e-05
-2.97018e-08
5.69971e-10
5.95807e-05
6.03793e-08
8.75913e-13
-2.23754e-08
4.86502e-08
-2.23757e-08
5.1807e-10
4.86506e-08
9.78173e-13
-5.94354e-05
5.94052e-05
-5.94354e-05
5.76662e-10
5.94052e-05
7.66858e-13
5.18867e-10
2.66803e-09
-5.96116e-05
-2.97177e-08
5.95786e-05
6.05794e-08
-5.95952e-05
-1.61219e-08
-1.10805e-08
5.95617e-05
6.33845e-08
2.96918e-09
-2.2426e-08
4.87382e-08
-9.66748e-09
-6.97944e-09
5.18187e-08
2.94468e-09
-5.94352e-05
5.94031e-05
-5.94175e-05
1.95394e-08
5.93848e-05
3.08158e-09
2.30296e-08
3.36404e-09
-5.95137e-05
-7.35495e-08
5.95159e-05
5.69488e-08
-5.97175e-05
2.78128e-09
5.96569e-05
6.121e-08
-3.6162e-09
-6.98729e-08
4.55297e-08
1.46734e-08
4.93692e-08
-5.3155e-08
-5.93298e-05
5.93289e-05
-5.95361e-05
5.94857e-05
-5.97391e-08
-1.27962e-08
-5.95994e-05
-1.30638e-08
5.95408e-05
8.43972e-08
-5.95029e-05
-8.28736e-08
1.52726e-08
5.94769e-05
8.07992e-08
-8.64329e-09
-5.86209e-09
7.19775e-08
-7.69255e-08
1.35328e-08
6.76895e-08
4.20654e-08
-5.94333e-05
5.93781e-05
-5.93151e-05
-1.46636e-08
5.92889e-05
4.65879e-08
-1.65343e-08
-1.87087e-09
-5.95256e-05
-2.81521e-08
5.9485e-05
8.596e-08
-5.9541e-05
-4.18886e-08
-6.41012e-10
5.94976e-05
8.40374e-08
-2.29578e-09
-2.1903e-08
7.37819e-08
-3.55303e-08
-5.93812e-10
7.14838e-08
-2.13257e-09
-5.93489e-05
5.93082e-05
-5.93656e-05
-6.09835e-10
5.93222e-05
-2.56039e-09
-5.92845e-10
1.44466e-12
-5.95444e-05
-4.19913e-08
5.95019e-05
8.3868e-08
-5.95444e-05
-4.19913e-08
6.43926e-10
5.95019e-05
8.38679e-08
1.19042e-12
-3.55657e-08
7.12791e-08
-3.55658e-08
5.96038e-10
7.12793e-08
1.46516e-12
-5.9369e-05
5.93264e-05
-5.9369e-05
6.12422e-10
5.93264e-05
1.19488e-12
5.94933e-10
1.87343e-09
-5.9541e-05
-4.1888e-08
5.94976e-05
8.40372e-08
-5.95256e-05
-2.81515e-08
-1.52699e-08
5.9485e-05
8.59585e-08
2.29793e-09
-3.55305e-08
7.14842e-08
-2.19034e-08
-1.35305e-08
7.37817e-08
2.13505e-09
-5.93656e-05
5.93222e-05
-5.93489e-05
1.46652e-08
5.93082e-05
2.56248e-09
1.65357e-08
1.27973e-08
-5.95029e-05
-8.28726e-08
5.94769e-05
8.07982e-08
-5.95994e-05
-1.30633e-08
5.95408e-05
8.43971e-08
8.64442e-09
-7.69255e-08
6.76901e-08
-5.86259e-09
7.19781e-08
-4.20642e-08
-5.93151e-05
5.9289e-05
-5.94333e-05
5.93781e-05
-4.65868e-08
-1.81067e-08
-5.9482e-05
-2.81499e-08
5.94194e-05
1.08845e-07
-5.94403e-05
-9.40007e-08
1.63854e-08
5.93935e-05
1.06271e-07
-1.56925e-08
-2.09435e-08
9.55045e-08
-8.74153e-08
1.595e-08
9.24046e-08
3.49208e-08
-5.93195e-05
5.92564e-05
-5.92524e-05
-1.23579e-08
5.92057e-05
3.77015e-08
-1.31357e-08
-9.52592e-10
-5.94395e-05
-4.07756e-08
5.93877e-05
1.09956e-07
-5.94493e-05
-5.42613e-08
-8.46359e-10
5.93948e-05
1.087e-07
-1.38467e-09
-3.40089e-08
9.67779e-08
-4.7464e-08
-8.83745e-10
9.52439e-08
-1.19663e-09
-5.92627e-05
5.92107e-05
-5.92737e-05
-7.60993e-10
5.9219e-05
-1.63505e-09
-6.16749e-10
2.12256e-12
-5.94537e-05
-5.44121e-08
5.93987e-05
1.08542e-07
-5.94537e-05
-5.4412e-08
8.50565e-10
5.93987e-05
1.08542e-07
1.85596e-12
-4.76849e-08
9.50392e-08
-4.76849e-08
8.87514e-10
9.50391e-08
2.11124e-12
-5.92781e-05
5.92229e-05
-5.92781e-05
7.64867e-10
5.92229e-05
1.79294e-12
6.19894e-10
9.55892e-10
-5.94493e-05
-5.42606e-08
5.93948e-05
1.087e-07
-5.94395e-05
-4.07752e-08
-1.63821e-08
5.93877e-05
1.09955e-07
1.38759e-09
-4.74634e-08
9.5244e-08
-3.40086e-08
-1.5947e-08
9.6777e-08
1.19985e-09
-5.92737e-05
5.9219e-05
-5.92627e-05
1.23598e-08
5.92108e-05
1.63789e-09
1.31374e-08
1.81081e-08
-5.94403e-05
-9.39995e-08
5.93935e-05
1.06271e-07
-5.9482e-05
-2.81491e-08
5.94194e-05
1.08845e-07
1.56938e-08
-8.74142e-08
9.24046e-08
-2.0943e-08
9.55045e-08
-3.49195e-08
-5.92524e-05
5.92057e-05
-5.93195e-05
5.92564e-05
-3.77002e-08
-2.07417e-08
-5.93531e-05
-4.22569e-08
5.9281e-05
1.35128e-07
-5.93383e-05
-1.06364e-07
1.59914e-08
5.92741e-05
1.33861e-07
-1.95029e-08
-3.47831e-08
1.20556e-07
-9.90162e-08
1.61335e-08
1.18572e-07
3.05297e-08
-5.91895e-05
5.91167e-05
-5.91504e-05
-1.14938e-08
5.90861e-05
3.21042e-08
-1.16926e-08
-2.18864e-10
-5.93299e-05
-5.44624e-08
5.92646e-05
1.36016e-07
-5.93347e-05
-6.76007e-08
-5.33006e-10
5.92674e-05
1.35217e-07
-5.50195e-10
-4.69942e-08
1.21453e-07
-6.01862e-08
-6.98757e-10
1.20455e-07
-4.46639e-10
-5.91528e-05
5.90873e-05
-5.91587e-05
-5.11596e-10
5.90911e-05
-7.83809e-10
-6.55019e-10
2.49332e-12
-5.93379e-05
-6.77305e-08
5.92699e-05
1.35202e-07
-5.93379e-05
-6.77306e-08
5.38231e-10
5.92699e-05
1.35201e-07
2.29334e-12
-6.03164e-08
1.20377e-07
-6.03165e-08
7.03379e-10
1.20377e-07
2.5094e-12
-5.9162e-05
5.90937e-05
-5.9162e-05
5.16395e-10
5.90937e-05
2.29388e-12
6.59279e-10
2.22682e-10
-5.93347e-05
-6.76004e-08
5.92674e-05
1.35217e-07
-5.93299e-05
-5.44626e-08
-1.59876e-08
5.92646e-05
1.36015e-07
5.53718e-10
-6.01859e-08
1.20455e-07
-4.69944e-08
-1.61299e-08
1.21452e-07
4.50451e-10
-5.91587e-05
5.90912e-05
-5.91529e-05
1.14959e-08
5.90874e-05
7.87303e-10
1.16946e-08
2.07433e-08
-5.93384e-05
-1.06363e-07
5.92741e-05
1.33862e-07
-5.93531e-05
-4.22567e-08
5.9281e-05
1.35129e-07
1.95044e-08
-9.90153e-08
1.18572e-07
-3.47828e-08
1.20557e-07
-3.05282e-08
-5.91505e-05
5.90861e-05
-5.91896e-05
5.91168e-05
-3.21028e-08
-2.18057e-08
-5.92037e-05
-5.74021e-08
5.9119e-05
1.63879e-07
-5.92024e-05
-1.19974e-07
1.49948e-08
5.91217e-05
1.63874e-07
-2.11881e-08
-4.91891e-08
1.47676e-07
-1.1184e-07
1.5376e-08
1.47012e-07
2.77782e-08
-5.90388e-05
5.89536e-05
-5.90142e-05
-1.1258e-08
5.89332e-05
2.8725e-08
-1.12086e-08
2.52369e-10
-5.91926e-05
-6.93956e-08
5.91121e-05
1.646e-07
-5.91939e-05
-8.21344e-08
-1.76454e-10
5.91123e-05
1.64183e-07
4.98683e-11
-6.11241e-08
1.48419e-07
-7.39306e-08
-3.49994e-10
1.47823e-07
4.16997e-11
-5.90152e-05
5.89345e-05
-5.90174e-05
-1.93781e-10
5.89355e-05
-1.66125e-10
-3.46114e-10
3.29902e-12
-5.91958e-05
-8.22656e-08
5.91136e-05
1.64253e-07
-5.91958e-05
-8.22656e-08
1.83808e-10
5.91136e-05
1.64253e-07
2.67996e-12
-7.40595e-08
1.47854e-07
-7.40596e-08
3.55855e-10
1.47854e-07
2.88051e-12
-5.90193e-05
5.89368e-05
-5.90193e-05
2.0018e-10
5.89368e-05
2.66126e-12
3.51462e-10
-2.4778e-10
-5.91939e-05
-8.21343e-08
5.91123e-05
1.64183e-07
-5.91926e-05
-6.93965e-08
-1.49904e-08
5.91122e-05
1.646e-07
-4.57877e-11
-7.39305e-08
1.47823e-07
-6.11249e-08
-1.53719e-08
1.48419e-07
-3.72633e-11
-5.90174e-05
5.89355e-05
-5.90152e-05
1.12603e-08
5.89345e-05
1.70204e-10
1.12109e-08
2.18076e-08
-5.92024e-05
-1.19973e-07
5.91217e-05
1.63875e-07
-5.92037e-05
-5.74024e-08
5.9119e-05
1.6388e-07
2.11899e-08
-1.11839e-07
1.47013e-07
-4.91892e-08
1.47676e-07
-2.77762e-08
-5.90142e-05
5.89333e-05
-5.90389e-05
5.89537e-05
-2.87232e-08
-2.19764e-08
-5.90281e-05
-7.40378e-08
5.89286e-05
1.95527e-07
-5.90335e-05
-1.35131e-07
1.39021e-08
5.89359e-05
1.96808e-07
-2.17855e-08
-6.49064e-08
1.77621e-07
-1.26104e-07
1.42885e-08
1.78198e-07
2.60374e-08
-5.88622e-05
5.87621e-05
-5.88448e-05
-1.12186e-08
5.87469e-05
2.6537e-08
-1.11234e-08
4.84057e-10
-5.90244e-05
-8.58424e-08
5.89274e-05
1.96311e-07
-5.90237e-05
-9.81687e-08
7.85681e-12
5.89262e-05
1.96211e-07
3.89782e-10
-7.66622e-08
1.78276e-07
-8.90693e-08
-7.18687e-11
1.78038e-07
2.85416e-10
-5.88465e-05
5.87492e-05
-5.88467e-05
2.01639e-11
5.87488e-05
1.90161e-10
-6.00194e-11
2.86072e-12
-5.90246e-05
-9.83254e-08
5.89267e-05
1.96301e-07
-5.90246e-05
-9.83252e-08
-2.74996e-12
5.89267e-05
1.96301e-07
2.98339e-12
-8.92166e-08
1.78116e-07
-8.92167e-08
7.63566e-11
1.78116e-07
2.72018e-12
-5.88476e-05
5.87493e-05
-5.88476e-05
-1.49875e-11
5.87493e-05
2.82088e-12
6.46318e-11
-4.79024e-10
-5.90238e-05
-9.81691e-08
5.89262e-05
1.96211e-07
-5.90244e-05
-8.5844e-08
-1.3897e-08
5.89274e-05
1.96312e-07
-3.85072e-10
-8.90694e-08
1.78038e-07
-7.66637e-08
-1.42838e-08
1.78277e-07
-2.80466e-10
-5.88467e-05
5.87488e-05
-5.88465e-05
1.12212e-08
5.87492e-05
-1.85522e-10
1.11258e-08
2.19787e-08
-5.90335e-05
-1.35131e-07
5.8936e-05
1.96809e-07
-5.90281e-05
-7.40387e-08
5.89286e-05
1.95529e-07
2.17877e-08
-1.26104e-07
1.78199e-07
-6.49072e-08
1.77622e-07
-2.60351e-08
-5.88448e-05
5.8747e-05
-5.88622e-05
5.87622e-05
-2.6535e-08
-2.16791e-08
-5.88219e-05
-9.22592e-08
5.87053e-05
2.30524e-07
-5.88306e-05
-1.5193e-07
1.28993e-08
5.8715e-05
2.3295e-07
-2.16419e-08
-8.21348e-08
2.10488e-07
-1.41879e-07
1.32566e-08
2.12304e-07
2.47635e-08
-5.86549e-05
5.85379e-05
-5.86413e-05
-1.11814e-08
5.85253e-05
2.51226e-08
-1.10898e-08
5.37342e-10
-5.88225e-05
-1.03962e-07
5.87074e-05
2.31468e-07
-5.88211e-05
-1.15865e-07
1.08636e-10
5.87058e-05
2.31568e-07
5.23552e-10
-9.3733e-08
2.11299e-07
-1.05732e-07
7.34224e-11
2.11307e-07
3.4532e-10
-5.8644e-05
5.85285e-05
-5.86433e-05
1.32062e-10
5.85277e-05
3.31025e-10
7.18051e-11
2.89555e-12
-5.88212e-05
-1.16053e-07
5.87057e-05
2.31692e-07
-5.88212e-05
-1.16051e-07
-1.04361e-10
5.87057e-05
2.31693e-07
2.89869e-12
-1.05892e-07
2.11418e-07
-1.05892e-07
-6.77856e-11
2.11418e-07
3.0464e-12
-5.86434e-05
5.85275e-05
-5.86434e-05
-1.24706e-10
5.85275e-05
2.3517e-12
-6.77194e-11
-5.31855e-10
-5.88211e-05
-1.15866e-07
5.87058e-05
2.31569e-07
-5.88226e-05
-1.03964e-07
-1.28936e-08
5.87074e-05
2.31469e-07
-5.1828e-10
-1.05732e-07
2.11308e-07
-9.37345e-08
-1.32513e-08
2.113e-07
-3.39944e-10
-5.86433e-05
5.85277e-05
-5.8644e-05
1.11842e-08
5.85285e-05
-3.25998e-10
1.10925e-08
2.16816e-08
-5.88307e-05
-1.51929e-07
5.87151e-05
2.32951e-07
-5.88219e-05
-9.22594e-08
5.87053e-05
2.30525e-07
2.16444e-08
-1.41878e-07
2.12305e-07
-8.21353e-08
2.1049e-07
-2.47611e-08
-5.86413e-05
5.85253e-05
-5.86549e-05
5.85379e-05
-2.51203e-08
-2.1094e-08
-5.85805e-05
-1.12519e-07
5.84446e-05
2.69426e-07
-5.8591e-05
-1.70714e-07
1.20622e-08
5.84556e-05
2.7289e-07
-2.12031e-08
-1.01168e-07
2.47176e-07
-1.5954e-07
1.23406e-08
2.50049e-07
2.38518e-08
-5.84127e-05
5.82763e-05
-5.84008e-05
-1.10889e-08
5.8265e-05
2.40237e-08
-1.10481e-08
4.99161e-10
-5.85837e-05
-1.24019e-07
5.84487e-05
2.70605e-07
-5.85821e-05
-1.35505e-07
1.41793e-10
5.84471e-05
2.70847e-07
5.19143e-10
-1.12664e-07
2.48159e-07
-1.24241e-07
1.26783e-10
2.48334e-07
3.18594e-10
-5.84045e-05
5.8269e-05
-5.84035e-05
2.33898e-10
5.82681e-05
3.33035e-10
2.00671e-10
3.5858e-12
-5.85818e-05
-1.3575e-07
5.84467e-05
2.70985e-07
-5.85818e-05
-1.35748e-07
-1.36204e-10
5.84467e-05
2.70986e-07
3.22932e-12
-1.24465e-07
2.48463e-07
-1.24464e-07
-1.21834e-10
2.48463e-07
3.67026e-12
-5.84032e-05
5.82677e-05
-5.84033e-05
-2.25752e-10
5.82677e-05
3.37178e-12
-1.93074e-10
-4.93124e-10
-5.85821e-05
-1.35506e-07
5.84471e-05
2.70847e-07
-5.85838e-05
-1.2402e-07
-1.20562e-08
5.84487e-05
2.70605e-07
-5.13451e-10
-1.24242e-07
2.48334e-07
-1.12666e-07
-1.23348e-08
2.48159e-07
-3.12609e-10
-5.84036e-05
5.82681e-05
-5.84045e-05
1.10919e-08
5.82691e-05
-3.27382e-10
1.1051e-08
2.10966e-08
-5.8591e-05
-1.70712e-07
5.84557e-05
2.72891e-07
-5.85805e-05
-1.12519e-07
5.84447e-05
2.69427e-07
2.12056e-08
-1.59539e-07
2.50049e-07
-1.01168e-07
2.47177e-07
-2.38493e-08
-5.84008e-05
5.82651e-05
-5.84127e-05
5.82763e-05
-2.40213e-08
-2.04234e-08
-5.82998e-05
-1.34773e-07
5.81424e-05
3.12564e-07
-5.83111e-05
-1.91586e-07
1.13456e-08
5.8154e-05
3.16925e-07
-2.05589e-08
-1.22175e-07
2.87593e-07
-1.79103e-07
1.15779e-08
2.91478e-07
2.30371e-08
-5.81309e-05
5.79731e-05
-5.81201e-05
-1.09445e-08
5.79625e-05
2.32447e-08
-1.09003e-08
4.20221e-10
-5.83044e-05
-1.46161e-07
5.81475e-05
3.13985e-07
-5.83029e-05
-1.57279e-07
1.52334e-10
5.81461e-05
3.14335e-07
4.59484e-10
-1.33493e-07
2.88873e-07
-1.44678e-07
1.48492e-10
2.8917e-07
2.52094e-10
-5.81244e-05
5.7967e-05
-5.81235e-05
2.4489e-10
5.79662e-05
2.8952e-10
2.44658e-10
4.05434e-12
-5.83025e-05
-1.57526e-07
5.81457e-05
3.14481e-07
-5.83025e-05
-1.57525e-07
-1.45765e-10
5.81457e-05
3.14482e-07
3.80605e-12
-1.44926e-07
2.89311e-07
-1.44925e-07
-1.42464e-10
2.89312e-07
4.09464e-12
-5.8123e-05
5.79658e-05
-5.8123e-05
-2.35953e-10
5.79658e-05
3.85689e-12
-2.36176e-10
-4.13637e-10
-5.83029e-05
-1.57281e-07
5.81461e-05
3.14336e-07
-5.83045e-05
-1.46163e-07
-1.1339e-08
5.81476e-05
3.13986e-07
-4.5322e-10
-1.4468e-07
2.89171e-07
-1.33495e-07
-1.15716e-08
2.88874e-07
-2.45591e-10
-5.81235e-05
5.79662e-05
-5.81244e-05
1.09476e-08
5.7967e-05
-2.83325e-10
1.09034e-08
2.04262e-08
-5.83112e-05
-1.91585e-07
5.81541e-05
3.16926e-07
-5.82998e-05
-1.34774e-07
5.81425e-05
3.12566e-07
2.05615e-08
-1.79101e-07
2.91479e-07
-1.22175e-07
2.87595e-07
-2.30344e-08
-5.81201e-05
5.79625e-05
-5.81309e-05
5.79731e-05
-2.32421e-08
-1.96818e-08
-5.7975e-05
-1.59451e-07
5.77938e-05
3.60346e-07
-5.79868e-05
-2.14763e-07
1.07506e-08
5.78057e-05
3.65431e-07
-1.98676e-08
-1.45408e-07
3.32669e-07
-2.00957e-07
1.0931e-08
3.37377e-07
2.24166e-08
-5.78052e-05
5.76233e-05
-5.77948e-05
-1.07307e-08
5.76131e-05
2.24839e-08
-1.07466e-08
3.36985e-10
-5.79805e-05
-1.70574e-07
5.77995e-05
3.61967e-07
-5.79792e-05
-1.81352e-07
1.55838e-10
5.77983e-05
3.62394e-07
3.73795e-10
-1.5658e-07
3.34194e-07
-1.67422e-07
1.52226e-10
3.34581e-07
1.78949e-10
-5.77995e-05
5.7618e-05
-5.77988e-05
2.17267e-10
5.76174e-05
2.10616e-10
2.31168e-10
4.46648e-12
-5.79787e-05
-1.81573e-07
5.77979e-05
3.62554e-07
-5.79787e-05
-1.81572e-07
-1.48364e-10
5.77979e-05
3.62555e-07
4.24048e-12
-1.67656e-07
3.34732e-07
-1.67655e-07
-1.45146e-10
3.34733e-07
4.42377e-12
-5.77983e-05
5.7617e-05
-5.77983e-05
-2.07703e-10
5.7617e-05
4.22949e-12
-2.22006e-10
-3.29934e-10
-5.79792e-05
-1.81354e-07
5.77984e-05
3.62396e-07
-5.79805e-05
-1.70577e-07
-1.07438e-08
5.77995e-05
3.61969e-07
-3.67041e-10
-1.67423e-07
3.34582e-07
-1.56582e-07
-1.09244e-08
3.34195e-07
-1.71994e-10
-5.77988e-05
5.76174e-05
-5.77995e-05
1.0734e-08
5.7618e-05
-2.03945e-10
1.07498e-08
1.96847e-08
-5.79868e-05
-2.14762e-07
5.78057e-05
3.65433e-07
-5.79751e-05
-1.59452e-07
5.77939e-05
3.60348e-07
1.98705e-08
-2.00957e-07
3.37379e-07
-1.45409e-07
3.32671e-07
-2.24138e-08
-5.77948e-05
5.76132e-05
-5.78052e-05
5.76233e-05
-2.24811e-08
-1.89557e-08
-5.76016e-05
-1.86464e-07
5.7394e-05
4.13014e-07
-5.76136e-05
-2.40339e-07
1.02215e-08
5.74061e-05
4.18689e-07
-1.9128e-08
-1.70937e-07
3.82252e-07
-2.25003e-07
1.03748e-08
3.87597e-07
2.17438e-08
-5.74305e-05
5.72223e-05
-5.74205e-05
-1.05087e-08
5.72124e-05
2.18481e-08
-1.0518e-08
2.58657e-10
-5.76075e-05
-1.97386e-07
5.74001e-05
4.14801e-07
-5.76064e-05
-2.07844e-07
1.38689e-10
5.73991e-05
4.15303e-07
2.94006e-10
-1.81865e-07
3.83946e-07
-1.92376e-07
1.48975e-10
3.84405e-07
1.09056e-10
-5.74255e-05
5.72175e-05
-5.7425e-05
1.76039e-10
5.7217e-05
1.41977e-10
1.95372e-10
4.7583e-12
-5.76061e-05
-2.0804e-07
5.73988e-05
4.15469e-07
-5.76061e-05
-2.08039e-07
-1.30912e-10
5.73988e-05
4.1547e-07
4.56201e-12
-1.92582e-07
3.84569e-07
-1.92581e-07
-1.41445e-10
3.84569e-07
4.73238e-12
-5.74246e-05
5.72167e-05
-5.74246e-05
-1.65757e-10
5.72167e-05
4.52652e-12
-1.85562e-10
-2.51212e-10
-5.76065e-05
-2.07847e-07
5.73991e-05
4.15305e-07
-5.76075e-05
-1.9739e-07
-1.02144e-08
5.74001e-05
4.14804e-07
-2.86829e-10
-1.92378e-07
3.84407e-07
-1.81868e-07
-1.03678e-08
3.83948e-07
-1.01694e-10
-5.7425e-05
5.72171e-05
-5.74255e-05
1.0512e-08
5.72175e-05
-1.34889e-10
1.05213e-08
1.89587e-08
-5.76136e-05
-2.40339e-07
5.74061e-05
4.18692e-07
-5.76017e-05
-1.86465e-07
5.73941e-05
4.13017e-07
1.9131e-08
-2.25002e-07
3.87599e-07
-1.70939e-07
3.82254e-07
-2.17409e-08
-5.74205e-05
5.72125e-05
-5.74306e-05
5.72224e-05
-2.18453e-08
-1.8249e-08
-5.71745e-05
-2.16148e-07
5.69378e-05
4.71033e-07
-5.71866e-05
-2.68579e-07
9.75428e-09
5.695e-05
4.77168e-07
-1.84129e-08
-1.98959e-07
4.36929e-07
-2.51578e-07
9.88141e-09
4.42789e-07
2.11321e-08
-5.70021e-05
5.67649e-05
-5.69923e-05
-1.02701e-08
5.67552e-05
2.12194e-08
-1.02868e-08
1.92295e-10
-5.71806e-05
-2.26818e-07
5.69441e-05
4.72928e-07
-5.71798e-05
-2.36977e-07
1.11497e-10
5.69433e-05
4.7351e-07
2.21352e-10
-2.09651e-07
4.38758e-07
-2.19853e-07
1.23851e-10
4.39294e-07
5.05222e-11
-5.69974e-05
5.67603e-05
-5.69971e-05
1.35783e-10
5.67601e-05
7.71052e-11
1.53683e-10
5.12728e-12
-5.71795e-05
-2.37154e-07
5.6943e-05
4.73672e-07
-5.71795e-05
-2.37153e-07
-1.03425e-10
5.69431e-05
4.73673e-07
4.88486e-12
-2.20037e-07
4.39457e-07
-2.20036e-07
-1.15995e-10
4.39458e-07
5.1123e-12
-5.69968e-05
5.67598e-05
-5.69968e-05
-1.24663e-10
5.67598e-05
4.86244e-12
-1.43103e-10
-1.84442e-10
-5.71798e-05
-2.3698e-07
5.69433e-05
4.73512e-07
-5.71806e-05
-2.26821e-07
-9.74673e-09
5.69441e-05
4.72931e-07
-2.13781e-10
-2.19856e-07
4.39296e-07
-2.09654e-07
-9.87413e-09
4.38761e-07
-4.27399e-11
-5.69971e-05
5.67601e-05
-5.69975e-05
1.02735e-08
5.67603e-05
-6.96129e-11
1.02901e-08
1.8252e-08
-5.71866e-05
-2.68578e-07
5.695e-05
4.77171e-07
-5.71745e-05
-2.1615e-07
5.69379e-05
4.71036e-07
1.84159e-08
-2.51577e-07
4.42791e-07
-1.98961e-07
4.36932e-07
-2.11292e-08
-5.69924e-05
5.67552e-05
-5.70022e-05
5.67649e-05
-2.12165e-08
-1.75511e-08
-5.66883e-05
-2.48297e-07
5.64202e-05
5.33994e-07
-5.67005e-05
-2.99248e-07
9.32166e-09
5.64324e-05
5.40488e-07
-1.77168e-08
-2.2957e-07
4.96818e-07
-2.80738e-07
9.43766e-09
5.03078e-07
2.05232e-08
-5.65147e-05
5.62458e-05
-5.65051e-05
-1.00146e-08
5.62364e-05
2.06163e-08
-1.00408e-08
1.41179e-10
-5.66946e-05
-2.58681e-07
5.64265e-05
5.35946e-07
-5.66939e-05
-2.68552e-07
8.70536e-11
5.64259e-05
5.36615e-07
1.63194e-10
-2.39992e-07
4.98727e-07
-2.49904e-07
9.76638e-11
4.99345e-07
7.25324e-12
-5.65102e-05
5.62415e-05
-5.65101e-05
1.02247e-10
5.62414e-05
2.67687e-11
1.16862e-10
5.54401e-12
-5.66937e-05
-2.68712e-07
5.64257e-05
5.3677e-07
-5.66937e-05
-2.68711e-07
-7.88137e-11
5.64257e-05
5.36771e-07
5.28198e-12
-2.50071e-07
4.99502e-07
-2.5007e-07
-8.95742e-11
4.99504e-07
5.55897e-12
-5.65098e-05
5.62412e-05
-5.65098e-05
-9.01874e-11
5.62412e-05
5.2742e-12
-1.05398e-10
-1.32874e-10
-5.6694e-05
-2.68555e-07
5.6426e-05
5.36616e-07
-5.66946e-05
-2.58684e-07
-9.31366e-09
5.64266e-05
5.35948e-07
-1.55205e-10
-2.49907e-07
4.99347e-07
-2.39996e-07
-9.42997e-09
4.98729e-07
9.94346e-13
-5.65101e-05
5.62414e-05
-5.65103e-05
1.00182e-08
5.62416e-05
-1.88419e-11
1.00443e-08
1.75542e-08
-5.67005e-05
-2.99247e-07
5.64324e-05
5.4049e-07
-5.66884e-05
-2.48299e-07
5.64202e-05
5.33997e-07
1.77199e-08
-2.80737e-07
5.03081e-07
-2.29572e-07
4.96821e-07
-2.05201e-08
-5.65051e-05
5.62364e-05
-5.65147e-05
5.62459e-05
-2.06133e-08
-1.68867e-08
-5.6138e-05
-2.832e-07
5.58356e-05
6.02531e-07
-5.61503e-05
-3.3272e-07
8.924e-09
5.58478e-05
6.09327e-07
-1.70462e-08
-2.62807e-07
5.6201e-07
-3.12543e-07
9.02975e-09
5.68594e-07
1.99394e-08
-5.5963e-05
5.56599e-05
-5.59537e-05
-9.76361e-09
5.56506e-05
2.003e-08
-9.79134e-09
1.04181e-10
-5.61444e-05
-2.93289e-07
5.5842e-05
6.04506e-07
-5.61439e-05
-3.02894e-07
6.8217e-11
5.58416e-05
6.0527e-07
1.19888e-10
-2.72943e-07
5.63957e-07
-2.82583e-07
7.61461e-11
5.64666e-07
-2.23863e-11
-5.59588e-05
5.56558e-05
-5.59587e-05
7.65908e-11
5.56557e-05
-9.01158e-12
8.75873e-11
5.9028e-12
-5.61437e-05
-3.0304e-07
5.58414e-05
6.05418e-07
-5.61437e-05
-3.03039e-07
-5.98794e-11
5.58414e-05
6.0542e-07
5.6897e-12
-2.82734e-07
5.64816e-07
-2.82733e-07
-6.79431e-11
5.64818e-07
6.06837e-12
-5.59586e-05
5.56556e-05
-5.59586e-05
-6.35147e-11
5.56556e-05
5.7487e-12
-7.51449e-11
-9.53566e-11
-5.61439e-05
-3.02897e-07
5.58416e-05
6.05272e-07
-5.61445e-05
-2.93292e-07
-8.91548e-09
5.58421e-05
6.04508e-07
-1.11413e-10
-2.82586e-07
5.64667e-07
-2.72947e-07
-9.02158e-09
5.63959e-07
3.11787e-11
-5.59588e-05
5.56558e-05
-5.59589e-05
9.76743e-09
5.56558e-05
1.74389e-11
9.79503e-09
1.689e-08
-5.61503e-05
-3.3272e-07
5.58479e-05
6.0933e-07
-5.61381e-05
-2.83202e-07
5.58356e-05
6.02535e-07
1.70494e-08
-3.12542e-07
5.68597e-07
-2.62809e-07
5.62014e-07
-1.99362e-08
-5.59537e-05
5.56507e-05
-5.59631e-05
5.56599e-05
-2.00269e-08
-1.62467e-08
-5.55181e-05
-3.20763e-07
5.51787e-05
6.76452e-07
-5.55304e-05
-3.68901e-07
8.54997e-09
5.5191e-05
6.83528e-07
-1.64011e-08
-2.98692e-07
6.32556e-07
-3.47034e-07
8.64855e-09
6.39423e-07
1.93752e-08
-5.53417e-05
5.50016e-05
-5.53326e-05
-9.51848e-09
5.49926e-05
1.94614e-08
-9.54532e-09
7.87425e-11
-5.55246e-05
-3.30556e-07
5.51852e-05
6.78431e-07
-5.55242e-05
-3.39912e-07
5.48667e-11
5.51848e-05
6.79299e-07
8.93085e-11
-3.08535e-07
6.34513e-07
-3.1792e-07
6.03396e-11
6.35321e-07
-4.10714e-11
-5.53377e-05
5.49977e-05
-5.53377e-05
5.82774e-11
5.49977e-05
-3.25958e-11
6.59269e-11
5.85188e-12
-5.55241e-05
-3.40046e-07
5.51847e-05
6.7944e-07
-5.55241e-05
-3.40045e-07
-4.5962e-11
5.51847e-05
6.79442e-07
5.90094e-12
-3.18058e-07
6.35464e-07
-3.18057e-07
-5.1934e-11
6.35466e-07
6.6707e-12
-5.53376e-05
5.49976e-05
-5.53376e-05
-4.4245e-11
5.49976e-05
6.28745e-12
-5.24731e-11
-6.95302e-11
-5.55242e-05
-3.39915e-07
5.51849e-05
6.79301e-07
-5.55246e-05
-3.3056e-07
-8.54091e-09
5.51852e-05
6.78433e-07
-8.03196e-11
-3.17923e-07
6.35322e-07
-3.08539e-07
-8.63982e-09
6.34516e-07
5.05193e-11
-5.53378e-05
5.49977e-05
-5.53378e-05
9.52256e-09
5.49977e-05
4.16064e-11
9.54923e-09
1.62502e-08
-5.55304e-05
-3.68901e-07
5.5191e-05
6.83531e-07
-5.55182e-05
-3.20765e-07
5.51787e-05
6.76456e-07
1.64044e-08
-3.47033e-07
6.39426e-07
-2.98694e-07
6.32559e-07
-1.93719e-08
-5.53327e-05
5.49927e-05
-5.53418e-05
5.50016e-05
-1.94582e-08
-1.56277e-08
-5.48232e-05
-3.60928e-07
5.44442e-05
7.55636e-07
-5.48356e-05
-4.07747e-07
8.19491e-09
5.44565e-05
7.63007e-07
-1.57786e-08
-3.37192e-07
7.08391e-07
-3.84195e-07
8.2882e-09
7.15538e-07
1.88352e-08
-5.46455e-05
5.42657e-05
-5.46366e-05
-9.28257e-09
5.4257e-05
1.89146e-08
-9.30703e-09
6.23036e-11
-5.48298e-05
-3.70432e-07
5.44508e-05
7.57623e-07
-5.48295e-05
-3.79555e-07
4.54895e-11
5.44504e-05
7.58604e-07
6.88578e-11
-3.46743e-07
7.10352e-07
-3.55891e-07
4.93084e-11
7.11267e-07
-5.15033e-11
-5.46417e-05
5.4262e-05
-5.46417e-05
4.60721e-11
5.42621e-05
-4.66785e-11
5.10511e-11
5.56238e-12
-5.48294e-05
-3.7968e-07
5.44504e-05
7.58739e-07
-5.48294e-05
-3.7968e-07
-3.55845e-11
5.44504e-05
7.5874e-07
5.6377e-12
-3.56018e-07
7.11403e-07
-3.56018e-07
-3.99873e-11
7.11405e-07
6.85747e-12
-5.46416e-05
5.4262e-05
-5.46416e-05
-3.29117e-11
5.4262e-05
6.89875e-12
-3.69188e-11
-5.30698e-11
-5.48295e-05
-3.79558e-07
5.44505e-05
7.58606e-07
-5.48299e-05
-3.70436e-07
-8.18555e-09
5.44508e-05
7.57626e-07
-5.96985e-11
-3.55894e-07
7.11269e-07
-3.46748e-07
-8.27904e-09
7.10355e-07
6.15374e-11
-5.46418e-05
5.42621e-05
-5.46417e-05
9.28698e-09
5.42621e-05
5.64649e-11
9.31123e-09
1.56313e-08
-5.48356e-05
-4.07746e-07
5.44565e-05
7.63011e-07
-5.48233e-05
-3.6093e-07
5.44442e-05
7.5564e-07
1.57821e-08
-3.84195e-07
7.15542e-07
-3.37194e-07
7.08394e-07
-1.88316e-08
-5.46367e-05
5.42571e-05
-5.46455e-05
5.42658e-05
-1.89112e-08
-1.5023e-08
-5.40484e-05
-4.03479e-07
5.36272e-05
8.39661e-07
-5.40607e-05
-4.49041e-07
7.85348e-09
5.36395e-05
8.47349e-07
-1.5169e-08
-3.78066e-07
7.89029e-07
-4.23781e-07
7.9416e-09
7.96477e-07
1.83188e-08
-5.38693e-05
5.34475e-05
-5.38607e-05
-9.05569e-09
5.3439e-05
1.83863e-08
-9.07536e-09
5.2402e-11
-5.4055e-05
-4.12705e-07
5.36338e-05
8.41661e-07
-5.40547e-05
-4.21609e-07
3.89967e-11
5.36335e-05
8.42759e-07
5.61171e-11
-3.87335e-07
7.91e-07
-3.96255e-07
4.14664e-11
7.92029e-07
-5.63235e-11
-5.38657e-05
5.3444e-05
-5.38657e-05
3.83647e-11
5.3444e-05
-5.39237e-11
4.12858e-11
5.47656e-12
-5.40546e-05
-4.21727e-07
5.36335e-05
8.42888e-07
-5.40546e-05
-4.21728e-07
-2.83017e-11
5.36335e-05
8.42889e-07
5.43799e-12
-3.96376e-07
7.92159e-07
-3.96376e-07
-3.12358e-11
7.9216e-07
6.24102e-12
-5.38657e-05
5.3444e-05
-5.38657e-05
-2.71429e-11
5.3444e-05
6.46071e-12
-2.94228e-11
-4.32474e-11
-5.40547e-05
-4.2161e-07
5.36336e-05
8.42761e-07
-5.4055e-05
-4.1271e-07
-7.84401e-09
5.36339e-05
8.41664e-07
-4.70138e-11
-3.96257e-07
7.92031e-07
-3.87339e-07
-7.93226e-09
7.91003e-07
6.60797e-11
-5.38658e-05
5.3444e-05
-5.38657e-05
9.06017e-09
5.3444e-05
6.3737e-11
9.07979e-09
1.50266e-08
-5.40607e-05
-4.4904e-07
5.36396e-05
8.47353e-07
-5.40484e-05
-4.03481e-07
5.36273e-05
8.39665e-07
1.51727e-08
-4.23781e-07
7.96481e-07
-3.78068e-07
7.89033e-07
-1.83152e-08
-5.38607e-05
5.34391e-05
-5.38693e-05
5.34475e-05
-1.83828e-08
-1.44333e-08
-5.31885e-05
-4.48335e-07
5.27229e-05
9.28374e-07
-5.32007e-05
-4.92718e-07
7.5258e-09
5.27351e-05
9.3642e-07
-1.45814e-08
-4.21449e-07
8.74774e-07
-4.65968e-07
7.61236e-09
8.82556e-07
1.78332e-08
-5.30081e-05
5.25419e-05
-5.29998e-05
-8.84089e-09
5.25338e-05
1.78943e-08
-8.85872e-09
4.69616e-11
-5.31951e-05
-4.57302e-07
5.27295e-05
9.30402e-07
-5.31948e-05
-4.65998e-07
3.51606e-11
5.27292e-05
9.3162e-07
4.87498e-11
-4.30453e-07
8.76765e-07
-4.39165e-07
3.64127e-11
8.77911e-07
-5.74871e-11
-5.30047e-05
5.25386e-05
-5.30048e-05
3.43372e-11
5.25387e-05
-5.66961e-11
3.55979e-11
5.54819e-12
-5.31948e-05
-4.66113e-07
5.27292e-05
9.31746e-07
-5.31948e-05
-4.66114e-07
-2.39569e-11
5.27292e-05
9.31747e-07
5.44473e-12
-4.3928e-07
8.78037e-07
-4.39281e-07
-2.5535e-11
8.78038e-07
5.95724e-12
-5.30047e-05
5.25386e-05
-5.30047e-05
-2.37747e-11
5.25386e-05
5.99155e-12
-2.49346e-11
-3.78712e-11
-5.31948e-05
-4.65999e-07
5.27292e-05
9.31622e-07
-5.31951e-05
-4.57306e-07
-7.51632e-09
5.27295e-05
9.30405e-07
-3.97239e-11
-4.39166e-07
8.77913e-07
-4.30457e-07
-7.60297e-09
8.76768e-07
6.70295e-11
-5.30048e-05
5.25387e-05
-5.30048e-05
8.84529e-09
5.25387e-05
6.62275e-11
8.86312e-09
1.44369e-08
-5.32008e-05
-4.92717e-07
5.27351e-05
9.36424e-07
-5.31885e-05
-4.48337e-07
5.27229e-05
9.28378e-07
1.4585e-08
-4.65968e-07
8.8256e-07
-4.2145e-07
8.74778e-07
-1.78296e-08
-5.29999e-05
5.25338e-05
-5.30082e-05
5.2542e-05
-1.78907e-08
-1.38553e-08
-5.22391e-05
-4.95212e-07
5.17269e-05
1.02121e-06
-5.22512e-05
-5.38489e-07
7.20967e-09
5.1739e-05
1.02965e-06
-1.4003e-08
-4.6688e-07
9.64684e-07
-5.10268e-07
7.2935e-09
9.72843e-07
1.73772e-08
-5.20576e-05
5.15451e-05
-5.20496e-05
-8.63708e-09
5.15371e-05
1.74274e-08
-8.65123e-09
4.44426e-11
-5.22456e-05
-5.03939e-07
5.17334e-05
1.02328e-06
-5.22454e-05
-5.12438e-07
3.354e-11
5.17332e-05
1.02462e-06
4.49707e-11
-4.75637e-07
9.66713e-07
-4.84148e-07
3.3763e-11
9.67978e-07
-5.64461e-11
-5.20544e-05
5.15419e-05
-5.20544e-05
3.28422e-11
5.15419e-05
-5.65956e-11
3.30084e-11
5.6673e-12
-5.22453e-05