/*--------------------------------*- C++ -*----------------------------------*\
  =========                 |
  \\      /  F ield         | OpenFOAM: The Open Source CFD Toolbox
   \\    /   O peration     | Website:  https://openfoam.org
    \\  /    A nd           | Version:  9
     \\/     M anipulation  |
\*---------------------------------------------------------------------------*/
FoamFile
{
    format      ascii;
    class       volScalarField;
    location    "4.6";
    object      epsilon;
}
// * * * * * * * * * * * * * * * * * * * * * * * * * * * * * * * * * * * * * //

dimensions      [0 2 -3 0 0 0 0];

internalField   nonuniform List<scalar> 
36360
(
0.648368
0.534878
0.391065
0.338822
0.494746
0.413525
0.147588
0.172917
0.28087
0.161082
0.147686
0.0677999
0.219039
0.120708
0.061546
0.0235421
0.1146
0.114529
0.0404925
0.040452
0.0838966
0.0838526
0.0157673
0.0157613
0.160846
0.280436
0.067646
0.147355
0.120523
0.218601
0.0235016
0.0613626
0.534277
0.647766
0.338308
0.390527
0.412688
0.493619
0.172431
0.14706
1.03383
0.869642
0.854459
0.709342
1.12367
0.934145
0.818973
0.670089
0.552169
0.39027
0.416706
0.271629
0.636409
0.47626
0.416841
0.282612
0.322426
0.322317
0.212465
0.212372
0.410675
0.410537
0.229613
0.22952
0.389935
0.551606
0.271336
0.4162
0.475806
0.635541
0.282289
0.416181
0.86892
1.03314
0.708673
0.853801
0.932736
1.12183
0.668956
0.817463
1.36033
1.17187
1.20137
1.02363
1.7194
1.47206
1.42299
1.20219
0.819951
0.635308
0.68711
0.512583
1.10716
0.90705
0.868317
0.686774
0.55576
0.555628
0.438225
0.438103
0.821665
0.821446
0.610618
0.610437
0.63491
0.819305
0.512213
0.686501
0.90636
1.10592
0.686197
0.867255
1.17107
1.35959
1.02287
1.20065
1.47016
1.71694
1.20052
1.42083
1.6556
1.45091
1.5118
1.31454
2.29196
2.00192
2.00957
1.73937
1.07514
0.874981
0.949766
0.756727
1.58556
1.35478
1.34725
1.13086
0.78757
0.787422
0.672904
0.672763
1.25417
1.25388
1.03736
1.03711
0.874543
1.07444
0.756307
0.94909
1.3539
1.58402
1.13007
1.34585
1.45006
1.65485
1.31371
1.51105
1.99962
2.28902
1.73725
2.00686
1.92038
1.7038
1.79197
1.58092
2.8231
2.50087
2.56326
2.256
1.31036
1.09885
1.1957
0.989449
2.04387
1.78918
1.81818
1.57473
1.00578
1.00562
0.898988
0.898835
1.67683
1.67649
1.46787
1.46755
1.09839
1.30963
0.988997
1.19498
1.78815
2.0421
1.57377
1.81652
1.70294
1.91963
1.58006
1.79122
2.49826
2.81978
2.25353
2.56012
2.15404
1.92826
2.04119
1.81973
3.30236
2.95592
3.06918
2.73399
1.52165
1.30166
1.41926
1.20321
2.46655
2.19309
2.25996
1.99534
1.20439
1.20423
1.10789
1.10773
2.07167
2.07129
1.87817
1.87781
1.30119
1.52091
1.20275
1.41852
2.19196
2.4646
1.99426
2.25809
1.9274
2.1533
1.81886
2.04045
2.95309
3.29877
2.73126
3.06571
2.35733
2.12446
2.25951
2.02997
3.72628
3.36141
3.5209
3.16463
1.70785
1.48145
1.61805
1.39464
2.84628
2.55809
2.6617
2.38043
1.38102
1.38086
1.29568
1.29552
2.42959
2.42919
2.25527
2.25488
1.48097
1.70711
1.39416
1.61731
2.55688
2.84421
2.37926
2.65969
2.1236
2.35662
2.02911
2.25879
3.35841
3.72249
3.1617
3.5172
2.53215
2.29374
2.44832
2.21251
4.09556
3.71653
3.91722
3.5448
1.86952
1.63825
1.79187
1.56288
3.18095
2.88123
3.01893
2.72465
1.53541
1.53525
1.46115
1.46099
2.74715
2.74673
2.59318
2.59277
1.63778
1.86878
1.5624
1.79113
2.87996
3.17879
2.72341
3.01681
2.29289
2.53146
2.21166
2.44762
3.71341
4.09161
3.54174
3.91335
2.68065
2.43793
2.60969
2.369
4.41285
4.0229
4.26006
3.8752
2.00795
1.77301
1.94173
1.70851
3.47114
3.16234
3.33113
3.02662
1.66838
1.66822
1.60471
1.60454
3.02407
3.02363
2.89031
2.88988
1.77253
2.00722
1.70803
1.941
3.16102
3.46891
3.02532
3.32894
2.4371
2.67999
2.36816
2.60902
4.01969
4.40879
3.87204
4.25605
2.80538
2.55931
2.74602
2.50152
4.6822
4.28383
4.55284
4.1584
2.12502
1.88732
2.06926
1.83283
3.7193
3.40339
3.59994
3.28738
1.78137
1.7812
1.7275
1.72733
3.26191
3.26146
3.1474
3.14696
1.88684
2.12429
1.83236
2.06852
3.40205
3.71703
3.28605
3.59769
2.55849
2.80475
2.5007
2.74537
4.28055
4.67806
4.15515
4.54874
2.9087
2.66009
2.85975
2.61232
4.90775
4.5029
4.79974
4.3979
2.22263
1.98291
2.17636
1.93757
3.92846
3.60704
3.82818
3.50934
1.876
1.87583
1.8311
1.83093
3.46312
3.46267
3.36656
3.36611
1.98244
2.22191
1.9371
2.17563
3.60567
3.92615
3.50799
3.82588
2.65928
2.90809
2.61151
2.85913
4.49957
4.90354
4.3946
4.79556
2.99292
2.74242
2.95327
2.70365
5.0938
4.68401
5.00503
4.59752
2.30275
2.06163
2.26501
2.02452
4.10204
3.77647
4.01912
3.69548
1.95403
1.95387
1.91723
1.91707
3.63069
3.63023
3.55058
3.55012
2.06116
2.30204
2.02405
2.26429
3.77508
4.0997
3.6941
4.01679
2.74162
2.99233
2.70284
2.95267
4.68065
5.08953
4.59417
5.00078
3.06006
2.80822
3.0287
2.77748
5.24423
4.83079
5.17277
4.761
2.36717
2.12516
2.33707
2.09545
4.24329
3.91472
4.17612
3.84894
2.01711
2.01695
1.9876
1.98744
3.76755
3.76708
3.70241
3.70195
2.1247
2.36646
2.09498
2.33636
3.91332
4.24092
3.84755
4.17376
2.80743
3.05949
2.77669
3.02812
4.82739
5.23992
4.75761
5.16848
3.11202
2.85931
3.08804
2.83572
5.36277
4.94675
5.30681
4.89195
2.41757
2.1751
2.39429
2.152
4.3554
4.02479
4.30241
3.97273
2.0668
2.06664
2.04381
2.04365
3.87662
3.87615
3.82502
3.82455
2.17464
2.41686
2.15154
2.39358
4.02338
4.35301
3.97132
4.30003
2.85854
3.11147
2.83494
3.08748
4.94333
5.35843
4.88854
5.30248
3.15037
2.89722
3.13303
2.88006
5.45261
5.03493
5.41063
4.99366
2.45541
2.21285
2.43824
2.1957
4.44122
4.1094
4.40104
4.06975
2.10448
2.10432
2.08734
2.08718
3.96061
3.96014
3.92123
3.92076
2.2124
2.45471
2.19524
2.43754
4.10799
4.43883
4.06834
4.39865
2.89646
3.14984
2.87929
3.13248
5.03149
5.44825
4.99023
5.40628
3.17655
2.92336
3.16513
2.91192
5.51665
5.09808
5.48723
5.06899
2.482
2.23969
2.47032
2.22785
4.50336
4.17104
4.47471
4.14258
2.13139
2.13123
2.11949
2.11934
4.02191
4.02144
3.99359
3.99312
2.23924
2.48131
2.22739
2.46962
4.16961
4.50096
4.14116
4.47231
2.92261
3.17603
2.91117
3.16461
5.09464
5.51228
5.06555
5.48286
3.19177
2.93889
3.1857
2.93263
5.55738
5.13862
5.53933
5.12057
2.49849
2.25673
2.49174
2.24967
4.54407
4.21186
4.52587
4.19355
2.14865
2.14849
2.14145
2.14129
4.06273
4.06226
4.04437
4.0439
2.25628
2.49781
2.24921
2.49105
4.21044
4.54167
4.19213
4.52347
2.93815
3.19126
2.93188
3.18519
5.13518
5.55301
5.11712
5.53495
3.19698
2.94479
3.19582
2.94325
5.57689
5.15858
5.56922
5.15059
2.50583
2.2649
2.50355
2.26217
4.5653
4.23377
4.55662
4.2247
2.15719
2.15704
2.15426
2.15411
4.08496
4.08449
4.0757
4.07523
2.26445
2.50515
2.26172
2.50287
4.23235
4.5629
4.22328
4.55422
2.94406
3.19649
2.94251
3.19532
5.15514
5.57252
5.14715
5.56484
3.19323
2.94205
3.19639
2.94466
5.57694
5.1596
5.57865
5.16081
2.50492
2.26504
2.50662
2.2662
4.56851
4.2382
4.56871
4.23778
2.15783
2.15767
2.15874
2.15858
4.08996
4.08949
4.08923
4.08876
2.2646
2.50425
2.26576
2.50594
4.23678
4.56613
4.23636
4.56632
2.94133
3.19274
2.94394
3.1959
5.15617
5.57258
5.15737
5.57428
3.18105
2.93128
3.18842
2.93791
5.55934
5.14365
5.57008
5.15351
2.49643
2.2579
2.50192
2.26269
4.55585
4.22734
4.5641
4.23464
2.15131
2.15116
2.15577
2.15562
4.07993
4.07946
4.08676
4.08629
2.25746
2.49577
2.26225
2.50125
4.22594
4.55348
4.23323
4.56172
2.93057
3.18058
2.93719
3.18794
5.14024
5.55501
5.15009
5.56573
3.16106
2.91305
3.17225
2.92332
5.52499
5.11139
5.54371
5.12897
2.48089
2.2439
2.48981
2.25203
4.52772
4.20143
4.54321
4.21577
2.13804
2.13789
2.14578
2.14563
4.05504
4.05458
4.06884
4.06838
2.24347
2.48023
2.25159
2.48916
4.20004
4.52537
4.21437
4.54085
2.91235
3.1606
2.92262
3.17178
5.10801
5.52069
5.12558
5.53939
3.13376
2.88789
3.14856
2.90158
5.47511
5.06412
5.5015
5.08911
2.45882
2.22363
2.47096
2.23484
4.48553
4.16192
4.50796
4.18297
2.11859
2.11845
2.12938
2.12923
4.01675
4.01629
4.03717
4.03671
2.2232
2.45817
2.23441
2.47031
4.16054
4.4832
4.18158
4.50562
2.8872
3.13331
2.90089
3.14811
5.06078
5.47085
5.08575
5.49721
3.09953
2.85619
3.11775
2.87311
5.41053
5.00263
5.44418
5.03465
2.43061
2.19745
2.44577
2.21157
4.43005
4.10955
4.45904
4.13694
2.09336
2.09321
2.107
2.10685
3.96581
3.96535
3.99246
3.99201
2.19703
2.42997
2.21115
2.44513
4.10819
4.42776
4.13557
4.45673
2.85551
3.09909
2.87242
3.11731
4.99934
5.40632
5.03133
5.43994
3.05869
2.81827
3.08018
2.83826
5.33197
4.92766
5.37253
4.96635
2.39659
2.16569
2.41463
2.18257
4.36198
4.04502
4.39719
4.07842
2.06265
2.06251
2.07899
2.07885
3.90289
3.90244
3.93546
3.93501
2.16528
2.39597
2.18215
2.414
4.04368
4.35971
4.07707
4.39491
2.81761
3.05826
2.83759
3.07975
4.92441
5.32783
4.96307
5.36835
3.01153
2.77443
3.03615
2.79735
5.24008
4.83982
5.28724
4.88487
2.35705
2.12863
2.37781
2.14813
4.28191
3.96891
4.32306
4.00804
2.02675
2.0266
2.04565
2.04551
3.82858
3.82814
3.86679
3.86634
2.12823
2.35644
2.14772
2.3772
3.9676
4.27969
4.00671
4.32081
2.77378
3.01111
2.79669
3.03573
4.83663
5.236
4.88165
5.28313
2.95829
2.72492
2.98592
2.75064
5.13541
4.73968
5.1889
4.79083
2.31222
2.0865
2.3356
2.10851
4.19038
3.88174
4.23721
3.92635
1.98586
1.98573
2.00723
2.00709
3.74338
3.74295
3.78698
3.78655
2.0861
2.31162
2.1081
2.33499
3.88045
4.1882
3.92505
4.23501
2.72428
2.95789
2.75
2.98551
4.73655
5.13142
4.78767
5.18487
2.89923
2.66995
2.92974
2.69837
5.01848
4.62773
5.07805
4.68473
2.26229
2.03949
2.28819
2.06391
4.08785
3.78395
4.14013
3.83383
1.9402
1.94006
1.96393
1.96379
3.64773
3.64732
3.69652
3.69609
2.0391
2.26171
2.06351
2.2876
3.78269
4.08572
3.83255
4.13798
2.66933
2.89883
2.69774
2.92934
4.62467
5.01458
4.68164
5.0741
2.83456
2.60974
2.86784
2.64076
4.8898
4.50448
4.9552
4.56708
2.20747
1.98777
2.23579
2.01452
3.97476
3.67597
4.03228
3.7309
1.88991
1.88978
1.91593
1.9158
3.54206
3.54165
3.59582
3.5954
1.98739
2.2069
2.01413
2.23521
3.67474
3.97268
3.72966
4.03018
2.60913
2.83417
2.64014
2.86745
4.5015
4.88599
4.56406
4.95134
2.76452
2.54449
2.80045
2.578
4.74983
4.37035
4.82083
4.43836
2.14791
1.93149
2.17858
1.9605
3.8515
3.55816
3.91407
3.61797
1.83515
1.83503
1.86339
1.86326
3.42672
3.42632
3.48528
3.48487
1.93112
2.14735
1.96012
2.17801
3.55697
3.84948
3.61676
3.91202
2.5439
2.76414
2.5774
2.80007
4.36745
4.74612
4.43542
4.81707
2.68936
2.4744
2.72782
2.51029
4.59903
4.22575
4.6754
4.29896
2.08378
1.8708
2.11671
1.90199
3.71846
3.43091
3.78588
3.49541
1.77606
1.77593
1.80644
1.80631
3.30209
3.3017
3.36526
3.36487
1.87044
2.08323
1.90162
2.11615
3.42975
3.71649
3.49423
3.78389
2.47382
2.68899
2.50971
2.72744
4.22293
4.59544
4.2961
4.67175
2.60933
2.39965
2.65019
2.43785
4.43792
4.07126
4.51939
4.14932
2.01523
1.80584
2.05034
1.83914
3.57604
3.29459
3.64811
3.36358
1.71274
1.71262
1.74521
1.74509
3.16854
3.16816
3.23613
3.23575
1.80548
2.0147
1.83878
2.0498
3.29346
3.57414
3.36244
3.64617
2.39909
2.60897
2.43728
2.64982
4.06854
4.43444
4.14654
4.51585
2.52471
2.32045
2.56782
2.36083
4.26701
3.9075
4.35335
3.99019
1.94242
1.73672
1.97963
1.77208
3.42467
3.14957
3.50118
3.22288
1.64534
1.64522
1.67983
1.67971
3.02644
3.02608
3.09827
3.0979
1.73638
1.9419
1.77172
1.97911
3.14849
3.42284
3.22177
3.49932
2.3199
2.52435
2.36028
2.56746
3.90486
4.26365
3.98751
4.34993
2.43581
2.23707
2.48101
2.27951
4.08672
3.73473
4.17771
3.82188
1.86553
1.6636
1.90475
1.70093
3.26472
2.99625
3.34549
3.07368
1.57396
1.57384
1.61042
1.6103
2.87617
2.87582
2.95205
2.9517
1.66326
1.86502
1.70059
1.90424
2.9952
3.26295
3.07261
3.34369
2.23653
2.43546
2.27896
2.48065
3.73219
4.08349
3.8193
4.17441
2.34298
2.14976
2.39008
2.19411
3.89751
3.5535
3.99291
3.64483
1.78473
1.5866
1.82588
1.62585
3.0966
2.83498
3.18141
2.91635
1.49872
1.49861
1.53709
1.53697
2.71808
2.71775
2.79785
2.79751
1.58628
1.78425
1.62552
1.82538
2.83398
3.09491
2.91532
3.17968
2.14924
2.34263
2.19359
2.38974
3.55107
3.8944
3.64234
3.98974
2.24676
2.05893
2.29547
2.10497
3.69995
3.36452
3.79945
3.45964
1.70027
1.50585
1.74321
1.54695
2.92079
2.66613
3.0094
2.75126
1.41969
1.41958
1.45994
1.45983
2.55247
2.55216
2.63599
2.63566
1.50553
1.6998
1.54663
1.74272
2.66517
2.91917
2.75028
3.00774
2.05842
2.24642
2.10446
2.29513
3.3622
3.69698
3.45725
3.79642
2.14819
1.96525
2.19788
2.01259
3.49508
3.16894
3.59806
3.26718
1.61239
1.42133
1.65699
1.46432
2.73775
2.48981
2.82993
2.5787
1.33672
1.33662
1.37897
1.37886
2.37931
2.37902
2.46665
2.46634
1.42102
1.61193
1.46401
1.65653
2.4889
2.73622
2.57777
2.82836
1.96476
2.14786
2.0121
2.19755
3.16673
3.49227
3.26491
3.59517
2.04993
1.86988
2.09893
1.9179
3.28608
2.96895
3.39047
3.06904
1.52105
1.3325
1.56743
1.37777
2.54755
2.3054
2.6434
2.39852
1.24916
1.24906
1.29383
1.29373
2.19786
2.19758
2.28952
2.28923
1.33221
1.5206
1.37747
1.56698
2.30456
2.54611
2.39764
2.64191
1.86941
2.0496
1.91742
2.0986
2.96687
3.28343
3.0669
3.38773
1.96082
1.77259
2.00327
1.82199
3.08596
2.76671
3.18292
2.86805
1.42374
1.23712
1.47378
1.28612
2.34708
2.11033
2.44893
2.20929
1.1552
1.15511
1.20337
1.20328
2.00639
2.00614
2.1033
2.10303
1.23684
1.42331
1.28584
1.47335
2.10956
2.34576
2.20848
2.44755
1.77214
1.9605
1.82153
2.00296
2.76477
3.08349
2.86604
3.18035
1.92451
1.64462
1.93006
1.71898
2.92673
2.51817
3.00151
2.65742
1.30658
1.12949
1.3696
1.1855
2.12001
1.90073
2.23853
2.00719
1.0518
1.05171
1.1051
1.10501
1.80509
1.80486
1.90649
1.90625
1.12923
1.30618
1.18523
1.36919
1.90003
2.11882
2.00645
2.23727
1.64418
1.92418
1.71853
1.92974
2.51643
2.92444
2.65557
2.99912
0.945864
0.793408
0.702022
0.591766
0.811538
0.672685
0.564769
0.473678
0.49807
0.337557
0.338139
0.209368
0.39259
0.248208
0.244149
0.135456
0.268328
0.268203
0.156891
0.15678
0.188361
0.188259
0.0937349
0.0936561
0.337184
0.497492
0.209017
0.337545
0.247893
0.392071
0.135194
0.243668
0.792779
0.94537
0.591038
0.701363
0.672065
0.810998
0.473035
0.564148
1.29624
1.11656
1.13758
0.966653
1.16688
0.993189
1.00463
0.843145
0.787837
0.598501
0.648547
0.469613
0.667925
0.488706
0.533985
0.368053
0.512989
0.512869
0.390251
0.390125
0.410149
0.410032
0.296852
0.29674
0.598161
0.787357
0.46925
0.648013
0.488364
0.667404
0.367718
0.533458
1.11613
1.29601
0.966121
1.13722
0.992634
1.16647
0.842555
1.00416
1.56466
1.37726
1.43717
1.2526
1.44938
1.2619
1.31389
1.13215
1.03999
0.840322
0.918248
0.722587
0.918259
0.723322
0.796135
0.607827
0.748232
0.74813
0.633133
0.633021
0.635835
0.635718
0.524133
0.524016
0.840042
1.03963
0.722276
0.917827
0.722987
0.917772
0.607486
0.795629
1.37701
1.56466
1.25226
1.43706
1.26143
1.44911
1.13164
1.31354
1.78882
1.599
1.68151
1.49254
1.69326
1.49818
1.57562
1.38389
1.26011
1.05624
1.15403
0.951806
1.14455
0.940643
1.03463
0.834664
0.961106
0.961024
0.857918
0.857825
0.847962
0.84785
0.744269
0.744155
1.05602
1.25986
0.951557
1.15372
0.940329
1.14411
0.834338
1.03416
1.59891
1.78904
1.49238
1.68163
1.4978
1.69311
1.38346
1.57541
1.9793
1.78899
1.888
1.69782
1.90558
1.70568
1.80333
1.60558
1.45092
1.24543
1.35921
1.15433
1.34589
1.1363
1.24854
1.0415
1.14883
1.14877
1.05833
1.05826
1.04031
1.0402
0.946984
0.946876
1.24527
1.45077
1.15414
1.35901
1.13601
1.3455
1.04119
1.24812
1.78905
1.9797
1.69781
1.88831
1.70538
1.90556
1.60523
1.80324
2.14132
1.95123
2.06376
1.87351
2.08903
1.88604
2.00088
1.79929
1.61488
1.40899
1.53628
1.3305
1.52229
1.30894
1.43734
1.22569
1.31174
1.31169
1.23351
1.23345
1.21074
1.21064
1.12849
1.12839
1.40888
1.61481
1.33037
1.53617
1.30868
1.52195
1.22542
1.43697
1.9514
2.14186
1.87363
2.06423
1.88581
2.08911
1.79903
2.0009
2.27833
2.0888
2.21289
2.02307
2.24625
2.04113
2.17092
1.96678
1.75452
1.54887
1.68778
1.48197
1.67486
1.45898
1.60166
1.38693
1.45141
1.45137
1.38458
1.38453
1.35927
1.35919
1.28791
1.28782
1.5488
1.75451
1.48188
1.68775
1.45874
1.67456
1.38668
1.60134
2.08906
2.27899
2.02329
2.2135
2.04097
2.24642
1.96659
2.17105
2.39335
2.2045
2.33858
2.14939
2.37976
2.17316
2.31599
2.11008
1.87242
1.66737
1.81625
1.61089
1.80533
1.58777
1.74296
1.52617
1.56995
1.56992
1.51342
1.51339
1.48705
1.48697
1.4259
1.42581
1.66733
1.87247
1.61083
1.81628
1.58755
1.80506
1.52594
1.74268
2.20485
2.39411
2.1497
2.33929
2.17305
2.38001
2.10995
2.31621
2.48884
2.30078
2.44354
2.25509
2.49186
2.28426
2.43851
2.23137
1.97094
1.76671
1.92418
1.71954
1.9156
1.69699
1.86309
1.64496
1.66949
1.66948
1.62221
1.62219
1.5956
1.59553
1.54387
1.54379
1.7667
1.97104
1.71952
1.92426
1.69679
1.91537
1.64475
1.86285
2.3012
2.48968
2.25547
2.44434
2.2842
2.49217
2.23129
2.4388
2.56716
2.37997
2.53018
2.34257
2.58493
2.37667
2.54083
2.33288
2.05237
1.84909
2.0139
1.81014
2.00774
1.78854
1.96406
1.74512
1.75219
1.75218
1.71308
1.71307
1.68675
1.68668
1.6435
1.64343
1.8491
2.05251
1.81015
2.01402
1.78836
2.00754
1.74493
1.96385
2.38043
2.56807
2.34301
2.53106
2.37666
2.5853
2.33284
2.54118
2.63036
2.44407
2.60069
2.41396
2.66102
2.4524
2.62516
2.41671
2.1187
1.91646
2.08754
1.88479
2.08364
1.86423
2.04786
1.82853
1.81996
1.81996
1.78809
1.78809
1.76223
1.76217
1.72661
1.72654
1.9165
2.11887
1.88482
2.0877
1.86406
2.08347
1.82835
2.04767
2.44458
2.63133
2.41445
2.60163
2.45242
2.66144
2.41671
2.62556
2.68029
2.49492
2.65707
2.47125
2.7221
2.51335
2.69354
2.48483
2.17177
1.97065
2.14704
1.94537
2.14515
1.92581
2.11636
1.89696
1.8746
1.8746
1.8491
1.8491
1.82377
1.82371
1.79493
1.79486
1.9707
2.17197
1.94542
2.14723
1.92565
2.14499
1.8968
2.1162
2.49547
2.68131
2.47178
2.65806
2.51341
2.72257
2.48487
2.69398
2.71848
2.53407
2.70093
2.51606
2.76986
2.56119
2.74775
2.53903
2.21314
2.01319
2.19408
1.99355
2.19385
1.97482
2.17128
1.95208
1.91763
1.91765
1.89775
1.89776
1.87287
1.87281
1.85007
1.85001
2.01325
2.21336
1.99361
2.19429
1.97467
2.19371
1.95193
2.17113
2.53466
2.71953
2.51663
2.70197
2.56128
2.77036
2.5391
2.74824
2.74634
2.56294
2.7338
2.54991
2.80583
2.59745
2.78944
2.58091
2.24421
2.04547
2.23014
2.03081
2.23121
2.0127
2.21415
1.99537
1.95045
1.95047
1.93552
1.93554
1.91094
1.91089
1.8935
1.89344
2.04555
2.24445
2.03088
2.23038
2.01256
2.23109
1.99522
2.21402
2.56355
2.74743
2.55051
2.73488
2.59756
2.80636
2.58101
2.78996
2.76498
2.58264
2.75693
2.57407
2.83127
2.62337
2.82001
2.61187
2.26615
2.06868
2.25652
2.05843
2.25848
2.04067
2.24633
2.02816
1.97423
1.97425
1.96369
1.96371
1.9392
1.93915
1.92653
1.92648
2.06877
2.26641
2.05851
2.25678
2.04054
2.25838
2.02802
2.24622
2.58327
2.76611
2.57469
2.75804
2.6235
2.83183
2.61198
2.82056
2.77544
2.59422
2.77137
2.58959
2.84732
2.64009
2.84063
2.63306
2.27999
2.08384
2.2743
2.0775
2.27676
2.05981
2.26898
2.05159
1.98999
1.99001
1.98335
1.98337
1.95872
1.95867
1.9503
1.95025
2.08394
2.28027
2.07759
2.27457
2.05969
2.27667
2.05146
2.26888
2.59487
2.77659
2.59024
2.77251
2.64023
2.8479
2.63319
2.8412
2.77853
2.59851
2.77806
2.59744
2.85492
2.64854
2.85236
2.64554
2.28659
2.09181
2.28443
2.08897
2.28699
2.07105
2.28313
2.06668
1.99859
1.99862
1.99543
1.99545
1.97041
1.97036
1.9658
1.96575
2.09192
2.28688
2.08907
2.28471
2.07093
2.2869
2.06656
2.28304
2.59918
2.7797
2.5981
2.77921
2.6487
2.85552
2.64569
2.85295
2.775
2.59628
2.77776
2.59838
2.85486
2.64952
2.85603
2.65017
2.28671
2.09333
2.28769
2.09363
2.28993
2.07516
2.28963
2.07427
2.00078
2.00081
2.00075
2.00077
1.97506
1.97502
1.97389
1.97384
2.09345
2.28701
2.09374
2.28799
2.07504
2.28985
2.07415
2.28955
2.59696
2.77619
2.59906
2.77893
2.64969
2.85548
2.65033
2.85664
2.76537
2.58807
2.7711
2.59309
2.84784
2.64377
2.85242
2.6477
2.28095
2.08909
2.28481
2.09219
2.28637
2.0729
2.28923
2.07508
1.99724
1.99727
1.99999
2.00002
1.9734
1.97336
1.97528
1.97523
2.0892
2.28126
2.09231
2.28511
2.07279
2.28631
2.07497
2.28915
2.58876
2.76657
2.59378
2.7723
2.64395
2.84847
2.64787
2.85304
2.75018
2.57442
2.75864
2.58211
2.8344
2.6318
2.84214
2.63878
2.26982
2.0795
2.27631
2.08523
2.27678
2.06474
2.28261
2.06984
1.9884
1.98843
1.99375
1.99378
1.96592
1.96588
1.97068
1.97064
2.07963
2.27013
2.08535
2.27662
2.06464
2.27672
2.06974
2.28254
2.57512
2.75138
2.58281
2.75984
2.63199
2.83504
2.63897
2.84277
2.72982
2.55575
2.74082
2.5659
2.81499
2.61409
2.82565
2.62388
2.25374
2.06505
2.26266
2.07316
2.26163
2.05116
2.27018
2.05892
1.97471
1.97475
1.98244
1.98247
1.95309
1.95305
1.96047
1.96043
2.06517
2.25406
2.07328
2.26298
2.05106
2.26158
2.05882
2.27012
2.55646
2.73103
2.56661
2.74203
2.61429
2.81564
2.62408
2.82629
2.70458
2.53237
2.718
2.54484
2.78995
2.59099
2.8034
2.60345
2.23306
2.04606
2.24424
2.0564
2.24133
2.03257
2.25242
2.04279
1.95655
1.95658
1.96647
1.9665
1.93531
1.93527
1.94512
1.94507
2.04619
2.23339
2.05652
2.24456
2.03247
2.24128
2.0427
2.25236
2.53307
2.70579
2.54555
2.7192
2.5912
2.7906
2.60365
2.80405
2.67472
2.50454
2.69041
2.5192
2.75957
2.56282
2.77565
2.57777
2.20806
2.02284
2.22137
2.03526
2.21617
2.00927
2.22965
2.02181
1.93418
1.93421
1.94617
1.9462
1.91289
1.91285
1.92498
1.92494
2.02297
2.20838
2.03539
2.22169
2.00917
2.21612
2.02171
2.2296
2.50524
2.67592
2.51991
2.69162
2.56303
2.76021
2.57798
2.7763
2.64047
2.47251
2.65833
2.48925
2.7241
2.52985
2.7427
2.54717
2.17898
1.99562
2.1943
2.01001
2.18643
1.98152
2.20217
1.99625
1.90786
1.9079
1.9218
1.92183
1.8861
1.88607
1.90035
1.90031
1.99575
2.1793
2.01014
2.19462
1.98144
2.18638
1.99616
2.20212
2.47321
2.64166
2.48995
2.65953
2.53005
2.72475
2.54738
2.74334
2.60204
2.43649
2.62196
2.4552
2.68379
2.49229
2.70478
2.51188
2.14602
1.96461
2.16325
1.98087
2.15232
1.94956
2.17021
1.96637
1.87779
1.87782
1.89358
1.89361
1.85516
1.85513
1.87146
1.87142
1.96473
2.14634
1.98099
2.16357
1.94948
2.15228
1.96629
2.17017
2.43719
2.60322
2.4559
2.62315
2.4925
2.68443
2.51208
2.70542
2.55963
2.39667
2.58151
2.41725
2.63883
2.45037
2.66212
2.47211
2.10937
1.92997
2.12842
1.94802
2.11405
1.91356
2.134
1.93237
1.84414
1.84417
1.86169
1.86172
1.82026
1.82022
1.83851
1.83847
1.93009
2.10968
1.94814
2.12874
1.91348
2.11401
1.93228
2.13396
2.39736
2.56079
2.41795
2.58269
2.45058
2.63946
2.47232
2.66275
2.51342
2.35323
2.53718
2.3756
2.58943
2.40425
2.61491
2.42806
2.06918
1.89186
2.08998
1.91162
2.07178
1.87369
2.09371
1.89441
1.80704
1.80707
1.82629
1.82632
1.78153
1.7815
1.80167
1.80163
1.89198
2.06949
1.91174
2.09029
1.87361
2.07175
1.89433
2.09367
2.35391
2.51456
2.37628
2.53833
2.40446
2.59005
2.42827
2.61553
2.46361
2.30632
2.48913
2.3304
2.53577
2.35411
2.56334
2.37991
2.02559
1.8504
2.04807
1.87182
2.02566
1.83008
2.04949
1.85265
1.76663
1.76666
1.78752
1.78755
1.73913
1.73909
1.76109
1.76105
1.85052
2.0259
1.87194
2.04837
1.83
2.02563
1.85257
2.04945
2.30699
2.46473
2.33107
2.49027
2.35431
2.53638
2.38011
2.56396
2.4104
2.25613
2.43759
2.28182
2.47807
2.30013
2.50764
2.32782
1.97876
1.80573
2.00283
1.82873
1.97584
1.78287
2.00149
1.80721
1.72302
1.72304
1.74549
1.74552
1.69317
1.69313
1.71688
1.71685
1.80585
1.97905
1.82885
2.00313
1.78279
1.97581
1.80714
2.00146
2.25679
2.41149
2.28248
2.4387
2.30033
2.47867
2.32802
2.50824
2.35401
2.20283
2.38276
2.23005
2.41656
2.2425
2.448
2.27198
1.92881
1.75796
1.95442
1.78249
1.92246
1.73217
1.94987
1.75823
1.67631
1.67634
1.70031
1.70034
1.64375
1.64372
1.66917
1.66914
1.75807
1.9291
1.7826
1.95471
1.73209
1.92243
1.75816
1.94983
2.20347
2.35508
2.23069
2.38384
2.24269
2.41714
2.27217
2.44858
2.29472
2.14665
2.32488
2.17526
2.35147
2.18138
2.38466
2.21258
1.8759
1.7072
1.90296
1.7332
1.86566
1.67809
1.89476
1.70582
1.62662
1.62665
1.65209
1.65212
1.591
1.59096
1.61807
1.61803
1.70731
1.87618
1.73331
1.90324
1.67802
1.86563
1.70575
1.89472
2.14726
2.29575
2.17589
2.32593
2.18156
2.35203
2.21277
2.38522
2.23276
2.0878
2.26421
2.11771
2.28309
2.11697
2.31788
2.14978
1.82021
1.6536
1.84863
1.681
1.8056
1.62077
1.83629
1.6501
1.57407
1.5741
1.60095
1.60098
1.535
1.53497
1.56367
1.56364
1.65371
1.82047
1.68111
1.8489
1.62069
1.80555
1.65003
1.83625
2.08839
2.23376
2.11832
2.26523
2.11715
2.28362
2.14995
2.31842
2.16851
2.02654
2.20106
2.05761
2.21172
2.04956
2.24795
2.08383
1.76191
1.5973
1.7916
1.62603
1.74244
1.56033
1.77465
1.5912
1.51877
1.5188
1.547
1.54703
1.47588
1.47585
1.50609
1.50606
1.5974
1.76216
1.62612
1.79186
1.56025
1.74239
1.59112
1.77461
2.02711
2.16947
2.0582
2.20203
2.04972
2.21223
2.08399
2.24847
2.10245
1.96326
2.13582
1.99528
2.13779
1.97944
2.17523
2.01501
1.70126
1.53847
1.73209
1.56843
1.6764
1.49691
1.71001
1.52924
1.46084
1.46086
1.49037
1.49039
1.41374
1.4137
1.44544
1.44541
1.53855
1.7015
1.56852
1.73233
1.49683
1.67635
1.52916
1.70997
1.96381
2.10336
1.99584
2.13676
1.97959
2.13827
2.01516
2.17573
2.03532
1.89854
2.06909
1.93119
2.06192
1.9071
2.10022
1.9437
1.63861
1.47724
1.67038
1.50837
1.60775
1.43063
1.64262
1.46437
1.40035
1.40037
1.43115
1.43117
1.34862
1.34858
1.3818
1.38176
1.47732
1.63883
1.50846
1.67061
1.43055
1.60769
1.46429
1.64257
1.89906
2.0362
1.93172
2.06999
1.90724
2.06237
1.94384
2.10068
1.9686
1.83339
2.0019
1.86608
1.98535
1.83336
2.02377
1.87051
1.57436
1.41365
1.60687
1.44598
1.5368
1.36148
1.57277
1.39667
1.33712
1.33713
1.36933
1.36934
1.28036
1.28032
1.31514
1.31511
1.41372
1.57456
1.44605
1.60708
1.3614
1.53674
1.39659
1.57272
1.83388
1.96942
1.86659
2.00276
1.83348
1.98577
1.87064
2.02421
1.90584
1.76951
1.93646
1.80129
1.91117
1.75962
1.94778
1.79655
1.50864
1.34706
1.54192
1.38104
1.46357
1.28883
1.50074
1.32591
1.27026
1.27027
1.30446
1.30447
1.20813
1.20809
1.24506
1.24502
1.34712
1.50882
1.3811
1.54211
1.28875
1.4635
1.32582
1.50067
1.76996
1.90661
1.80176
1.93726
1.75972
1.91156
1.79667
1.94819
1.85878
1.70818
1.87894
1.73879
1.84996
1.68634
1.87768
1.7233
1.43915
1.27482
1.47496
1.31215
1.38552
1.21011
1.42578
1.25075
1.19738
1.19739
1.235
1.235
1.12972
1.12968
1.17012
1.17008
1.27486
1.4393
1.3122
1.47513
1.21002
1.38543
1.25065
1.4257
1.70858
1.8595
1.73921
1.87968
1.68642
1.8503
1.72339
1.87805
1.88143
1.62671
1.85441
1.67552
1.85463
1.58849
1.83692
1.64641
1.35266
1.19086
1.39985
1.23492
1.28887
1.1192
1.34142
1.16682
1.11492
1.11492
1.15771
1.15771
1.0416
1.04156
1.08727
1.08723
1.19087
1.35277
1.23495
1.39998
1.11909
1.28877
1.16672
1.34132
1.62705
1.88211
1.67589
1.8551
1.58852
1.85493
1.64647
1.83725
1.15652
0.991276
0.91945
0.789605
1.05916
0.89868
0.818523
0.696318
0.683173
0.505839
0.511364
0.358732
0.594953
0.424174
0.42761
0.284837
0.425987
0.425836
0.292537
0.29238
0.348611
0.348469
0.224455
0.224318
0.505408
0.682557
0.358267
0.510644
0.423763
0.594344
0.284419
0.426937
0.990702
1.15617
0.788826
0.918827
0.898066
1.05873
0.695546
0.817865
1.50713
1.32407
1.34829
1.16982
1.40925
1.22699
1.25092
1.07499
0.996427
0.799367
0.846528
0.655727
0.897957
0.703377
0.752886
0.56639
0.707568
0.707457
0.568082
0.567949
0.613836
0.613719
0.48192
0.481788
0.799067
0.996058
0.655358
0.846035
0.703052
0.897528
0.566017
0.752364
1.32386
1.50721
1.16944
1.34816
1.22667
1.40917
1.07453
1.25067
1.77069
1.58657
1.64664
1.46223
1.67338
1.48736
1.54866
1.36361
1.26098
1.06064
1.13453
0.934841
1.15613
0.955257
1.03227
0.833472
0.965739
0.965671
0.84091
0.84082
0.861071
0.860985
0.740989
0.740887
1.06048
1.26084
0.934609
1.13428
0.955033
1.15588
0.833199
1.03193
1.58667
1.77112
1.46218
1.6469
1.4873
1.67362
1.36342
1.54875
1.98297
1.80176
1.8823
1.69943
1.88913
1.70389
1.78641
1.60051
1.48334
1.28472
1.37721
1.17741
1.37634
1.17471
1.27081
1.06918
1.18971
1.18968
1.08224
1.08219
1.07915
1.0791
0.974072
0.974002
1.28466
1.48339
1.1773
1.37716
1.17458
1.37624
1.06901
1.27064
1.8021
1.98368
1.69966
1.88288
1.70404
1.88962
1.60056
1.78678
2.15737
1.98001
2.07446
1.89516
2.069
1.88588
1.98317
1.79893
1.66968
1.47436
1.58085
1.3838
1.56353
1.36317
1.47397
1.27285
1.38035
1.38035
1.28921
1.2892
1.26757
1.26754
1.17717
1.17713
1.4744
1.66988
1.38379
1.58097
1.36312
1.56357
1.27276
1.47394
1.98055
2.15831
1.89561
2.07529
1.8862
2.0697
1.79918
1.98377
2.30148
2.12794
2.23295
2.05756
2.21961
2.03888
2.14776
1.96586
1.82532
1.63365
1.75123
1.55774
1.72186
1.52349
1.64625
1.44685
1.54101
1.54104
1.4644
1.46442
1.4284
1.4284
1.35147
1.35145
1.63376
1.82563
1.55782
1.75148
1.5235
1.722
1.44683
1.64634
2.12863
2.30259
2.05818
2.23398
2.03935
2.22047
1.96626
2.14855
2.4204
2.25038
2.36393
2.19222
2.34535
2.16697
2.28547
2.10596
1.95472
1.76662
1.89324
1.70341
1.85496
1.65879
1.79156
1.59429
1.67544
1.67549
1.61151
1.61154
1.56445
1.56446
1.49957
1.49957
1.76679
1.95512
1.70355
1.8936
1.65885
1.85519
1.59433
1.79174
2.25118
2.42165
2.19297
2.36511
2.16755
2.34635
2.10648
2.28641
2.51802
2.35114
2.47179
2.3034
2.44967
2.27348
2.40014
2.22289
2.06168
1.87691
2.011
1.82462
1.96608
1.77211
1.9133
1.71825
1.78715
1.78721
1.73417
1.73422
1.67862
1.67864
1.62433
1.62435
1.87713
2.06215
1.82482
2.01144
1.77221
1.96637
1.71833
1.91356
2.35203
2.51937
2.30426
2.47309
2.27415
2.45078
2.22351
2.40119
2.59733
2.43324
2.55991
2.39449
2.53535
2.36117
2.49481
2.31967
2.14931
1.9676
2.10794
1.92476
2.05798
1.86614
2.01449
1.82162
1.87918
1.87926
1.83569
1.83576
1.77352
1.77355
1.72856
1.72859
1.96785
2.14984
1.925
2.10845
1.86628
2.05833
1.82174
2.01481
2.43421
2.59876
2.39542
2.5613
2.3619
2.53653
2.32037
2.49596
2.66092
2.49933
2.63108
2.4683
2.60485
2.4325
2.57214
2.39891
2.22033
2.04141
2.18697
2.00671
2.13317
1.94337
2.09776
1.90696
1.95425
1.95433
1.91893
1.91901
1.8516
1.85164
1.81477
1.81481
2.0417
2.2209
2.00698
2.18752
1.94353
2.13356
1.90712
2.09812
2.50036
2.66243
2.4693
2.63256
2.4333
2.60611
2.39968
2.57336
2.71088
2.55153
2.68761
2.52719
2.66019
2.48954
2.63432
2.46285
2.27696
2.10062
2.25054
2.07296
2.19376
2.0059
2.1654
1.9766
2.01461
2.01471
1.98639
1.98648
1.91497
1.91502
1.88525
1.8853
2.10093
2.27758
2.07325
2.25113
2.00609
2.19419
1.97677
2.16581
2.55261
2.71244
2.52824
2.68914
2.49039
2.66151
2.46367
2.63561
2.749
2.59169
2.73146
2.57317
2.70318
2.53411
2.68329
2.51346
2.32116
2.14718
2.30074
2.12562
2.24163
2.05561
2.21942
2.03251
2.06226
2.06236
2.04017
2.04027
1.9655
1.96556
1.942
1.94205
2.14751
2.3218
2.12594
2.30137
2.05582
2.24209
2.03271
2.21987
2.59281
2.75061
2.57427
2.73305
2.53499
2.70455
2.51432
2.68463
2.77676
2.62133
2.76422
2.60789
2.73529
2.56772
2.72065
2.55236
2.3545
2.18273
2.33932
2.16649
2.27835
2.09411
2.26153
2.07643
2.09883
2.09894
2.0821
2.0822
2.0048
2.00486
1.98673
1.98679
2.18307
2.35518
2.16682
2.33998
2.09433
2.27883
2.07665
2.262
2.62249
2.77841
2.60903
2.76585
2.56864
2.7367
2.55327
2.72204
2.79549
2.64181
2.78732
2.6328
2.75787
2.59174
2.74785
2.58103
2.3784
2.20869
2.36779
2.19709
2.3053
2.12277
2.29321
2.10986
2.12576
2.12587
2.11369
2.11379
2.03425
2.03432
2.02095
2.02101
2.20905
2.3791
2.19744
2.36848
2.12301
2.30581
2.11009
2.29371
2.64299
2.79717
2.63397
2.78898
2.59269
2.75931