/*--------------------------------*- C++ -*----------------------------------*\
  =========                 |
  \\      /  F ield         | OpenFOAM: The Open Source CFD Toolbox
   \\    /   O peration     | Website:  https://openfoam.org
    \\  /    A nd           | Version:  9
     \\/     M anipulation  |
\*---------------------------------------------------------------------------*/
FoamFile
{
    format      ascii;
    class       volScalarField;
    location    "4.6";
    object      p;
}
// * * * * * * * * * * * * * * * * * * * * * * * * * * * * * * * * * * * * * //

dimensions      [0 2 -2 0 0 0 0];

internalField   nonuniform List<scalar> 
36360
(
20.1275
20.0801
20.1212
20.0845
20.0905
20.109
20.0935
20.1029
20.0989
20.1004
20.0996
20.1006
20.099
20.0991
20.0983
20.0987
20.1004
20.1004
20.1006
20.1006
20.0992
20.0992
20.0989
20.0989
20.1004
20.0989
20.1006
20.0996
20.0991
20.099
20.0987
20.0983
20.0801
20.1274
20.0845
20.1211
20.109
20.0906
20.1029
20.0935
20.1097
20.095
20.1176
20.0888
20.0655
20.1332
20.0782
20.1217
20.1003
20.0993
20.0995
20.0999
20.1015
20.0983
20.1001
20.0988
20.0992
20.0992
20.1
20.1
20.0981
20.0981
20.0988
20.0988
20.0993
20.1003
20.0999
20.0995
20.0983
20.1015
20.0988
20.1001
20.095
20.1097
20.0888
20.1176
20.1332
20.0655
20.1217
20.0783
20.0952
20.105
20.1023
20.1004
20.0415
20.1533
20.0532
20.1438
20.1045
20.0989
20.1021
20.099
20.1063
20.0982
20.1037
20.0981
20.0978
20.0978
20.0985
20.0985
20.097
20.097
20.0975
20.0975
20.0989
20.1044
20.099
20.1021
20.0982
20.1063
20.0981
20.1037
20.105
20.0952
20.1004
20.1023
20.1533
20.0416
20.1438
20.0532
20.0821
20.112
20.0884
20.1089
20.0206
20.1685
20.0306
20.1615
20.1096
20.0996
20.107
20.0992
20.1124
20.099
20.1092
20.0985
20.0968
20.0968
20.0972
20.0972
20.0962
20.0963
20.0966
20.0966
20.0996
20.1096
20.0991
20.107
20.0989
20.1122
20.0984
20.1093
20.112
20.0821
20.1089
20.0885
20.1683
20.0207
20.1614
20.0307
20.071
20.1164
20.0763
20.1145
20.0032
20.1792
20.0115
20.1743
20.1147
20.101
20.1122
20.1002
20.1181
20.1003
20.1152
20.0996
20.0963
20.0963
20.0965
20.0965
20.096
20.096
20.0961
20.0961
20.101
20.1147
20.1002
20.1122
20.1003
20.1181
20.0996
20.1152
20.1164
20.071
20.1145
20.0763
20.1792
20.0033
20.1743
20.0116
20.0616
20.1189
20.0661
20.1178
19.9888
20.1868
19.9957
20.1834
20.1193
20.1028
20.1171
20.1018
20.1232
20.102
20.1208
20.1012
20.0963
20.0963
20.0963
20.0963
20.0961
20.0961
20.096
20.096
20.1027
20.1192
20.1018
20.1171
20.102
20.1232
20.1011
20.1207
20.1189
20.0617
20.1178
20.0661
20.1868
19.9889
20.1833
19.9957
20.0539
20.1201
20.0576
20.1197
19.977
20.1921
19.9826
20.1897
20.123
20.1046
20.1212
20.1037
20.1275
20.1038
20.1255
20.1029
20.0967
20.0967
20.0965
20.0965
20.0966
20.0966
20.0963
20.0963
20.1046
20.123
20.1037
20.1212
20.1038
20.1275
20.1029
20.1254
20.1201
20.0539
20.1196
20.0576
20.192
19.9771
20.1896
19.9827
20.0474
20.1206
20.0505
20.1205
19.9673
20.1957
19.9719
20.1941
20.126
20.1063
20.1246
20.1055
20.1309
20.1056
20.1293
20.1047
20.0974
20.0974
20.097
20.097
20.0973
20.0972
20.0969
20.0969
20.1063
20.126
20.1055
20.1246
20.1056
20.1309
20.1047
20.1293
20.1206
20.0475
20.1204
20.0505
20.1956
19.9674
20.194
19.9721
20.042
20.1205
20.0446
20.1206
19.9593
20.1982
19.9631
20.1971
20.1283
20.1079
20.1273
20.1071
20.1336
20.1071
20.1323
20.1064
20.0982
20.0982
20.0978
20.0978
20.0981
20.0981
20.0976
20.0976
20.1079
20.1283
20.1071
20.1272
20.1071
20.1336
20.1064
20.1323
20.1205
20.0421
20.1206
20.0446
20.1981
19.9594
20.197
19.9632
20.0375
20.1201
20.0396
20.1203
19.9527
20.1998
19.9558
20.1991
20.1301
20.1092
20.1293
20.1086
20.1356
20.1085
20.1347
20.1078
20.099
20.099
20.0986
20.0986
20.0989
20.0989
20.0985
20.0985
20.1092
20.1301
20.1086
20.1293
20.1084
20.1356
20.1078
20.1346
20.1201
20.0375
20.1203
20.0397
20.1998
19.9527
20.199
19.9559
20.0336
20.1194
20.0355
20.1199
19.9471
20.2008
19.9498
20.2004
20.1315
20.1103
20.1308
20.1098
20.1372
20.1096
20.1364
20.109
20.0998
20.0998
20.0994
20.0994
20.0997
20.0997
20.0993
20.0993
20.1103
20.1314
20.1098
20.1309
20.1095
20.1371
20.109
20.1364
20.1195
20.0337
20.1197
20.0355
20.2008
19.9472
20.2003
19.9499
20.0303
20.1187
20.0319
20.1191
19.9425
20.2014
19.9447
20.2011
20.1324
20.1112
20.1319
20.1108
20.1383
20.1104
20.1378
20.11
20.1005
20.1005
20.1002
20.1002
20.1004
20.1004
20.1
20.1
20.1111
20.1324
20.1108
20.132
20.1104
20.1382
20.11
20.1377
20.1187
20.0304
20.119
20.0319
20.2013
19.9426
20.2011
19.9448
20.0275
20.1179
20.0289
20.1183
19.9386
20.2016
19.9405
20.2015
20.1331
20.1118
20.1328
20.1115
20.139
20.111
20.1387
20.1107
20.1011
20.1011
20.1008
20.1008
20.1009
20.1009
20.1006
20.1006
20.1118
20.133
20.1115
20.1327
20.111
20.139
20.1107
20.1386
20.1179
20.0276
20.1183
20.0289
20.2015
19.9387
20.2015
19.9406
20.0251
20.117
20.0263
20.1175
19.9354
20.2015
19.9369
20.2015
20.1334
20.1122
20.1333
20.112
20.1394
20.1114
20.1392
20.1113
20.1015
20.1014
20.1013
20.1013
20.1013
20.1013
20.1011
20.1011
20.1122
20.1334
20.112
20.1332
20.1114
20.1394
20.1113
20.1392
20.117
20.0251
20.1174
20.0263
20.2014
19.9355
20.2015
19.937
20.023
20.1161
20.024
20.1166
19.9326
20.2011
19.9339
20.2013
20.1336
20.1124
20.1335
20.1123
20.1396
20.1116
20.1395
20.1116
20.1017
20.1017
20.1016
20.1016
20.1015
20.1015
20.1014
20.1014
20.1124
20.1335
20.1123
20.1335
20.1116
20.1395
20.1116
20.1395
20.1161
20.023
20.1166
20.0241
20.2011
19.9327
20.2013
19.934
20.0212
20.1153
20.0221
20.1157
19.9304
20.2006
19.9314
20.2009
20.1335
20.1124
20.1336
20.1124
20.1395
20.1116
20.1396
20.1117
20.1018
20.1018
20.1017
20.1017
20.1015
20.1015
20.1015
20.1015
20.1124
20.1335
20.1124
20.1335
20.1116
20.1395
20.1116
20.1395
20.1153
20.0212
20.1157
20.0221
20.2006
19.9305
20.2009
19.9315
20.0196
20.1144
20.0203
20.1148
19.9285
20.1999
19.9294
20.2003
20.1333
20.1123
20.1334
20.1124
20.1392
20.1114
20.1394
20.1116
20.1017
20.1017
20.1018
20.1018
20.1014
20.1014
20.1014
20.1014
20.1123
20.1333
20.1124
20.1334
20.1114
20.1392
20.1116
20.1393
20.1144
20.0196
20.1148
20.0204
20.1999
19.9286
20.2003
19.9295
20.0182
20.1135
20.0189
20.1139
19.9269
20.1991
19.9276
20.1995
20.1329
20.112
20.1331
20.1121
20.1387
20.1111
20.139
20.1113
20.1015
20.1015
20.1016
20.1016
20.1011
20.1011
20.1012
20.1012
20.112
20.1329
20.1121
20.1331
20.1111
20.1387
20.1113
20.1389
20.1135
20.0182
20.1139
20.0189
20.1991
19.927
20.1995
19.9277
20.017
20.1127
20.0176
20.1131
19.9257
20.1981
19.9262
20.1986
20.1324
20.1116
20.1327
20.1118
20.138
20.1106
20.1384
20.1108
20.1012
20.1012
20.1013
20.1013
20.1006
20.1006
20.1009
20.1009
20.1115
20.1323
20.1118
20.1327
20.1106
20.138
20.1108
20.1383
20.1127
20.017
20.1131
20.0176
20.1981
19.9258
20.1986
19.9263
20.016
20.1118
20.0165
20.1122
19.9247
20.1971
19.9251
20.1976
20.1315
20.111
20.132
20.1113
20.1371
20.1099
20.1376
20.1102
20.1007
20.1007
20.101
20.101
20.1
20.1
20.1003
20.1003
20.111
20.1315
20.1113
20.1319
20.1099
20.1371
20.1102
20.1376
20.1118
20.016
20.1122
20.0165
20.197
19.9248
20.1976
19.9252
20.0151
20.111
20.0155
20.1114
19.924
20.1959
19.9243
20.1965
20.1306
20.1104
20.1311
20.1107
20.1361
20.1091
20.1366
20.1095
20.1002
20.1002
20.1005
20.1005
20.0994
20.0994
20.0997
20.0997
20.1103
20.1306
20.1107
20.131
20.1091
20.1361
20.1095
20.1366
20.111
20.0152
20.1114
20.0156
20.1959
19.9241
20.1965
19.9244
20.0145
20.1103
20.0148
20.1107
19.9235
20.1946
19.9237
20.1953
20.1296
20.1096
20.1301
20.11
20.1349
20.1082
20.1355
20.1087
20.0996
20.0996
20.0999
20.0999
20.0986
20.0986
20.099
20.099
20.1096
20.1296
20.11
20.1301
20.1082
20.1349
20.1087
20.1355
20.1103
20.0145
20.1107
20.0148
20.1946
19.9236
20.1952
19.9238
20.014
20.1096
20.0142
20.1099
19.9233
20.1933
19.9233
20.1939
20.1286
20.1089
20.1291
20.1093
20.1337
20.1073
20.1343
20.1078
20.099
20.099
20.0993
20.0993
20.0978
20.0978
20.0982
20.0982
20.1089
20.1285
20.1093
20.1291
20.1073
20.1337
20.1077
20.1343
20.1096
20.014
20.1099
20.0142
20.1932
19.9234
20.1939
19.9234
20.0136
20.1089
20.0138
20.1092
19.9233
20.1918
19.9233
20.1926
20.1275
20.1081
20.128
20.1085
20.1324
20.1063
20.1331
20.1068
20.0984
20.0984
20.0987
20.0987
20.0969
20.0969
20.0973
20.0973
20.1081
20.1275
20.1085
20.128
20.1063
20.1324
20.1068
20.133
20.1089
20.0137
20.1092
20.0138
20.1918
19.9234
20.1925
19.9234
20.0135
20.1083
20.0136
20.1086
19.9236
20.1904
19.9234
20.1911
20.1265
20.1074
20.127
20.1077
20.131
20.1052
20.1317
20.1057
20.0978
20.0978
20.0981
20.0981
20.096
20.096
20.0964
20.0964
20.1073
20.1265
20.1077
20.127
20.1052
20.131
20.1057
20.1317
20.1083
20.0136
20.1086
20.0136
20.1903
19.9237
20.1911
19.9235
20.0137
20.1078
20.0136
20.1081
19.9242
20.1889
19.9239
20.1896
20.1255
20.1066
20.126
20.107
20.1297
20.1042
20.1304
20.1047
20.0972
20.0972
20.0975
20.0975
20.0952
20.0952
20.0956
20.0956
20.1066
20.1255
20.107
20.126
20.1042
20.1296
20.1047
20.1303
20.1078
20.0137
20.1081
20.0136
20.1888
19.9243
20.1896
19.924
20.014
20.1074
20.0138
20.1076
19.9252
20.1873
19.9247
20.1881
20.1245
20.106
20.125
20.1063
20.1283
20.1032
20.129
20.1037
20.0968
20.0968
20.097
20.097
20.0944
20.0944
20.0948
20.0948
20.106
20.1245
20.1063
20.125
20.1032
20.1283
20.1037
20.129
20.1074
20.0141
20.1076
20.0138
20.1873
19.9253
20.1881
19.9248
20.0147
20.1071
20.0143
20.1072
19.9265
20.1858
19.9258
20.1866
20.1236
20.1055
20.1241
20.1057
20.1269
20.1023
20.1276
20.1028
20.0965
20.0965
20.0966
20.0966
20.0937
20.0937
20.094
20.094
20.1054
20.1236
20.1057
20.124
20.1023
20.1269
20.1028
20.1276
20.1071
20.0147
20.1072
20.0143
20.1858
19.9265
20.1865
19.9259
20.0156
20.1069
20.0151
20.107
19.9281
20.1843
19.9272
20.185
20.1228
20.105
20.1232
20.1052
20.1256
20.1016
20.1263
20.1019
20.0963
20.0963
20.0964
20.0964
20.0932
20.0932
20.0935
20.0935
20.105
20.1228
20.1052
20.1232
20.1016
20.1256
20.1019
20.1263
20.1069
20.0156
20.107
20.0151
20.1843
19.9282
20.185
19.9273
20.0169
20.1068
20.0162
20.1069
19.9302
20.1828
19.9291
20.1835
20.1221
20.1048
20.1224
20.1049
20.1244
20.1009
20.125
20.1012
20.0964
20.0964
20.0963
20.0963
20.0929
20.0929
20.093
20.093
20.1048
20.122
20.1049
20.1224
20.1009
20.1244
20.1012
20.125
20.1069
20.0169
20.1068
20.0162
20.1828
19.9303
20.1835
19.9292
20.0184
20.1067
20.0176
20.1069
19.9328
20.1813
19.9314
20.182
20.1216
20.1047
20.1217
20.1047
20.1233
20.1005
20.1238
20.1007
20.0966
20.0966
20.0965
20.0965
20.0928
20.0928
20.0928
20.0928
20.1047
20.1213
20.1047
20.1219
20.1005
20.1233
20.1007
20.1238
20.107
20.0185
20.1067
20.0176
20.1813
19.9329
20.182
19.9315
20.0204
20.1068
20.0194
20.1071
19.9358
20.1798
19.9342
20.1806
20.1211
20.1048
20.121
20.1047
20.1223
20.1003
20.1228
20.1004
20.0971
20.0971
20.0968
20.0968
20.093
20.093
20.0929
20.0929
20.1048
20.1208
20.1047
20.1214
20.1003
20.1223
20.1004
20.1228
20.1071
20.0205
20.1067
20.0194
20.1798
19.9359
20.1805
19.9343
20.0227
20.107
20.0216
20.1072
19.9394
20.1783
19.9376
20.1791
20.1208
20.1051
20.1206
20.1049
20.1215
20.1004
20.1218
20.1003
20.0979
20.0979
20.0974
20.0975
20.0934
20.0934
20.0932
20.0932
20.1051
20.1205
20.105
20.1209
20.1004
20.1214
20.1003
20.1218
20.1073
20.0228
20.1069
20.0215
20.1783
19.9395
20.179
19.9376
20.0255
20.1074
20.0241
20.1075
19.9436
20.1768
19.9415
20.1776
20.1204
20.1057
20.1203
20.1053
20.1208
20.1007
20.1211
20.1005
20.0988
20.0988
20.0983
20.0983
20.0942
20.0942
20.0938
20.0938
20.1057
20.1203
20.1054
20.1206
20.1007
20.1208
20.1005
20.1211
20.1075
20.0256
20.1072
20.0241
20.1767
19.9437
20.1775
19.9415
20.0288
20.1077
20.027
20.1074
19.9485
20.1751
19.946
20.1759
20.1202
20.1065
20.1205
20.1061
20.1203
20.1013
20.1205
20.101
20.1001
20.1001
20.0994
20.0994
20.0952
20.0952
20.0947
20.0947
20.1064
20.1202
20.1061
20.1205
20.1013
20.1203
20.101
20.1205
20.1077
20.0288
20.1074
20.0271
20.175
19.9486
20.1759
19.9461
20.0324
20.1079
20.0305
20.1076
19.9542
20.1731
19.9512
20.1741
20.1203
20.1075
20.1205
20.107
20.1201
20.1023
20.1202
20.1018
20.1015
20.1015
20.1008
20.1008
20.0966
20.0966
20.0959
20.0959
20.1075
20.1203
20.107
20.1205
20.1023
20.1201
20.1018
20.1202
20.1079
20.0324
20.1076
20.0305
20.1731
19.9543
20.1741
19.9513
20.0363
20.1081
20.0343
20.1077
19.9609
20.1707
19.9574
20.172
20.1205
20.1087
20.1207
20.1081
20.12
20.1035
20.12
20.1029
20.1032
20.1032
20.1023
20.1023
20.0982
20.0982
20.0973
20.0973
20.1087
20.1205
20.1081
20.1207
20.1035
20.12
20.1029
20.12
20.1081
20.0364
20.1077
20.0343
20.1706
19.961
20.1719
19.9575
20.0396
20.1093
20.0382
20.1081
19.9691
20.1672
19.9648
20.1691
20.1209
20.1102
20.1209
20.1094
20.1202
20.1051
20.1201
20.1042
20.105
20.105
20.1041
20.1041
20.1001
20.1001
20.0991
20.0991
20.1102
20.1209
20.1094
20.1209
20.1051
20.1202
20.1042
20.1201
20.1093
20.0396
20.1081
20.0383
20.1672
19.9692
20.1691
19.9649
20.0422
20.1103
20.0395
20.1114
19.9787
20.1622
19.9737
20.165
20.1223
20.1121
20.1215
20.1111
20.1209
20.107
20.1204
20.106
20.1071
20.1071
20.1061
20.1061
20.1022
20.1022
20.1011
20.1011
20.1121
20.1222
20.1111
20.1215
20.107
20.1209
20.106
20.1204
20.1103
20.0423
20.1114
20.0396
20.1622
19.9788
20.165
19.9738
20.1615
20.0548
20.14
20.0686
20.1489
20.062
20.1313
20.0736
20.0903
20.0995
20.0947
20.0999
20.0942
20.0997
20.0966
20.0995
20.1002
20.1002
20.1001
20.1001
20.0998
20.0998
20.0995
20.0995
20.0995
20.0903
20.1
20.0947
20.0996
20.0942
20.0995
20.0966
20.0548
20.1614
20.0686
20.1399
20.0621
20.1488
20.0737
20.1313
20.1487
20.0716
20.1529
20.0658
20.1374
20.075
20.1419
20.0703
20.0883
20.0973
20.0893
20.0986
20.0934
20.0985
20.0938
20.0993
20.0992
20.0992
20.0999
20.0999
20.0992
20.0992
20.0997
20.0997
20.0973
20.0884
20.0986
20.0893
20.0985
20.0934
20.0993
20.0938
20.0716
20.1486
20.0658
20.1528
20.075
20.1374
20.0703
20.1419
20.1439
20.0766
20.1461
20.0748
20.1301
20.0803
20.1337
20.0781
20.0893
20.0961
20.0886
20.0965
20.0953
20.0979
20.0941
20.0981
20.0978
20.0978
20.0985
20.0985
20.0979
20.0979
20.0985
20.0985
20.0961
20.0894
20.0965
20.0886
20.0979
20.0953
20.0981
20.0941
20.0766
20.1438
20.0748
20.146
20.0803
20.13
20.0781
20.1337
20.1403
20.0778
20.142
20.0775
20.1234
20.0827
20.1266
20.0818
20.0914
20.0962
20.0903
20.096
20.0986
20.0982
20.0969
20.098
20.0966
20.0966
20.0971
20.0971
20.0969
20.0969
20.0973
20.0973
20.0962
20.0914
20.096
20.0903
20.0982
20.0986
20.0979
20.0968
20.0778
20.1402
20.0775
20.1419
20.0827
20.1234
20.0818
20.1266
20.1373
20.0774
20.1387
20.0777
20.1177
20.0833
20.1204
20.0832
20.0933
20.097
20.0924
20.0965
20.102
20.0993
20.1004
20.0987
20.0961
20.0961
20.0963
20.0963
20.0964
20.0964
20.0966
20.0966
20.097
20.0933
20.0965
20.0924
20.0993
20.1019
20.0987
20.1003
20.0774
20.1372
20.0777
20.1387
20.0833
20.1177
20.0832
20.1204
20.1347
20.0762
20.136
20.0769
20.1128
20.083
20.1151
20.0832
20.0949
20.098
20.0942
20.0975
20.1046
20.1007
20.1034
20.1
20.0962
20.0962
20.0961
20.0961
20.0965
20.0965
20.0964
20.0964
20.098
20.0949
20.0975
20.0942
20.1007
20.1046
20.1
20.1034
20.0762
20.1347
20.0769
20.1359
20.083
20.1128
20.0832
20.1151
20.1325
20.0746
20.1336
20.0754
20.1087
20.0821
20.1106
20.0826
20.096
20.0992
20.0955
20.0986
20.1067
20.1022
20.1058
20.1015
20.0967
20.0967
20.0964
20.0964
20.0971
20.0971
20.0968
20.0968
20.0992
20.096
20.0986
20.0955
20.1022
20.1067
20.1015
20.1058
20.0747
20.1325
20.0755
20.1335
20.0821
20.1086
20.0826
20.1106
20.1306
20.073
20.1315
20.0738
20.1051
20.0808
20.1068
20.0815
20.0967
20.1004
20.0964
20.0998
20.1083
20.1037
20.1076
20.103
20.0975
20.0975
20.0971
20.0971
20.0979
20.0978
20.0974
20.0974
20.1004
20.0967
20.0998
20.0964
20.1037
20.1083
20.103
20.1076
20.073
20.1305
20.0738
20.1315
20.0808
20.1051
20.0815
20.1068
20.1288
20.0713
20.1297
20.0721
20.1021
20.0794
20.1036
20.0801
20.0971
20.1015
20.0969
20.101
20.1094
20.1051
20.1089
20.1045
20.0984
20.0984
20.0979
20.0979
20.0987
20.0987
20.0983
20.0983
20.1015
20.0971
20.101
20.0969
20.1051
20.1094
20.1044
20.1089
20.0713
20.1288
20.0721
20.1296
20.0794
20.1021
20.0801
20.1036
20.1273
20.0697
20.128
20.0704
20.0995
20.078
20.1008
20.0787
20.0972
20.1025
20.0972
20.102
20.1102
20.1063
20.1098
20.1057
20.0993
20.0992
20.0988
20.0988
20.0996
20.0996
20.0992
20.0992
20.1025
20.0972
20.102
20.0972
20.1063
20.1102
20.1057
20.1098
20.0697
20.1272
20.0705
20.128
20.078
20.0995
20.0787
20.1008
20.1259
20.0682
20.1266
20.0689
20.0973
20.0766
20.0984
20.0773
20.0971
20.1033
20.0971
20.1029
20.1106
20.1073
20.1104
20.1068
20.1001
20.1001
20.0997
20.0997
20.1004
20.1004
20.1
20.1
20.1033
20.0971
20.1029
20.0971
20.1073
20.1106
20.1068
20.1104
20.0682
20.1258
20.0689
20.1265
20.0766
20.0973
20.0773
20.0984
20.1246
20.0668
20.1252
20.0675
20.0953
20.0753
20.0963
20.0759
20.0969
20.104
20.097
20.1037
20.1108
20.1081
20.1107
20.1077
20.1008
20.1008
20.1004
20.1004
20.1012
20.1012
20.1008
20.1008
20.1039
20.0969
20.1036
20.097
20.1081
20.1108
20.1077
20.1107
20.0668
20.1245
20.0675
20.1252
20.0753
20.0953
20.0759
20.0963
20.1234
20.0655
20.124
20.0661
20.0936
20.074
20.0944
20.0746
20.0966
20.1044
20.0967
20.1042
20.1109
20.1087
20.1109
20.1084
20.1014
20.1014
20.1011
20.1011
20.1018
20.1018
20.1015
20.1015
20.1044
20.0966
20.1042
20.0967
20.1087
20.1108
20.1084
20.1109
20.0655
20.1234
20.0661
20.1239
20.074
20.0936
20.0746
20.0944
20.1223
20.0643
20.1228
20.0649
20.092
20.0728
20.0928
20.0734
20.0962
20.1048
20.0964
20.1046
20.1107
20.1091
20.1108
20.1089
20.1019
20.1019
20.1016
20.1016
20.1022
20.1022
20.102
20.102
20.1047
20.0962
20.1046
20.0964
20.1091
20.1107
20.1089
20.1108
20.0643
20.1222
20.0649
20.1228
20.0728
20.092
20.0734
20.0928
20.1213
20.0632
20.1218
20.0637
20.0906
20.0716
20.0913
20.0722
20.0958
20.1049
20.096
20.1049
20.1105
20.1093
20.1106
20.1092
20.1022
20.1022
20.102
20.102
20.1025
20.1025
20.1024
20.1024
20.1049
20.0958
20.1049
20.096
20.1093
20.1105
20.1092
20.1106
20.0632
20.1212
20.0637
20.1217
20.0717
20.0906
20.0722
20.0913
20.1203
20.0622
20.1208
20.0627
20.0893
20.0706
20.09
20.0711
20.0954
20.105
20.0956
20.105
20.1101
20.1094
20.1103
20.1094
20.1023
20.1023
20.1023
20.1023
20.1026
20.1026
20.1026
20.1026
20.105
20.0954
20.105
20.0956
20.1094
20.1101
20.1094
20.1103
20.0622
20.1203
20.0627
20.1207
20.0706
20.0893
20.0711
20.0899
20.1194
20.0612
20.1198
20.0617
20.0882
20.0696
20.0888
20.0701
20.0949
20.105
20.0951
20.105
20.1095
20.1094
20.1098
20.1094
20.1024
20.1024
20.1024
20.1024
20.1026
20.1026
20.1026
20.1026
20.105
20.0949
20.105
20.0951
20.1094
20.1095
20.1094
20.1098
20.0613
20.1194
20.0617
20.1198
20.0696
20.0882
20.0701
20.0887
20.1186
20.0604
20.119
20.0608
20.0872
20.0687
20.0877
20.0692
20.0944
20.1048
20.0946
20.1049
20.1089
20.1092
20.1092
20.1093
20.1023
20.1023
20.1024
20.1024
20.1025
20.1025
20.1026
20.1026
20.1048
20.0944
20.1049
20.0946
20.1092
20.1089
20.1093
20.1092
20.0604
20.1185
20.0608
20.1189
20.0687
20.0871
20.0692
20.0876
20.1178
20.0597
20.1182
20.06
20.0862
20.0679
20.0867
20.0683
20.0939
20.1045
20.0942
20.1047
20.1084
20.1089
20.1087
20.1091
20.1022
20.1022
20.1023
20.1023
20.1022
20.1022
20.1024
20.1024
20.1045
20.0939
20.1047
20.0942
20.1089
20.1084
20.109
20.1086
20.0597
20.1177
20.0601
20.1181
20.0679
20.0862
20.0683
20.0867
20.117
20.059
20.1174
20.0593
20.0854
20.0672
20.0858
20.0675
20.0935
20.1042
20.0937
20.1044
20.1081
20.1085
20.1082
20.1087
20.1019
20.1019
20.1021
20.1021
20.1019
20.1019
20.1021
20.1021
20.1042
20.0935
20.1044
20.0937
20.1085
20.1081
20.1087
20.1082
20.059
20.117
20.0593
20.1174
20.0672
20.0853
20.0676
20.0858
20.1164
20.0585
20.1167
20.0587
20.0846
20.0665
20.085
20.0668
20.0931
20.1039
20.0933
20.104
20.1077
20.108
20.1079
20.1082
20.1017
20.1017
20.1018
20.1018
20.1015
20.1015
20.1017
20.1017
20.1039
20.0931
20.104
20.0933
20.108
20.1077
20.1082
20.1079
20.0585
20.1163
20.0587
20.1167
20.0665
20.0846
20.0669
20.0849
20.1158
20.058
20.1161
20.0582
20.084
20.066
20.0843
20.0662
20.0927
20.1035
20.0929
20.1037
20.1074
20.1075
20.1075
20.1078
20.1014
20.1014
20.1015
20.1015
20.1011
20.1011
20.1013
20.1013
20.1035
20.0927
20.1037
20.0929
20.1075
20.1074
20.1077
20.1075
20.058
20.1158
20.0582
20.1161
20.066
20.0839
20.0663
20.0842
20.1154
20.0577
20.1156
20.0579
20.0835
20.0655
20.0837
20.0657
20.0924
20.1032
20.0926
20.1033
20.107
20.107
20.1072
20.1072
20.1011
20.1011
20.1012
20.1012
20.1007
20.1006
20.1009
20.1009
20.1032
20.0924
20.1033
20.0926
20.107
20.107
20.1072
20.1072
20.0577
20.1153
20.0579
20.1155
20.0656
20.0834
20.0658
20.0837
20.115
20.0576
20.1152
20.0576
20.0831
20.0652
20.0832
20.0654
20.0922
20.1029
20.0923
20.103
20.1066
20.1065
20.1068
20.1067
20.1009
20.1008
20.101
20.101
20.1002
20.1002
20.1004
20.1004
20.1029
20.0922
20.103
20.0923
20.1065
20.1066
20.1067
20.1068
20.0576
20.115
20.0576
20.1151
20.0652
20.0831
20.0654
20.0832
20.1148
20.0576
20.1149
20.0575
20.0829
20.065
20.0829
20.0651
20.0921
20.1026
20.0921
20.1027
20.1062
20.106
20.1064
20.1062
20.1007
20.1007
20.1007
20.1007
20.0999
20.0999
20.1
20.1
20.1026
20.0921
20.1027
20.0921
20.106
20.1062
20.1062
20.1064
20.0576
20.1148
20.0576
20.1149
20.0651
20.0828
20.0651
20.0829
20.1147
20.0577
20.1147
20.0576
20.0828
20.065
20.0828
20.065
20.092
20.1025
20.092
20.1025
20.1059
20.1056
20.1061
20.1058
20.1006
20.1006
20.1006
20.1006
20.0996
20.0996
20.0997
20.0997
20.1025
20.092
20.1025
20.092
20.1056
20.1059
20.1058
20.106
20.0577
20.1147
20.0576
20.1147
20.065
20.0828
20.065
20.0828
20.1148
20.0579
20.1147
20.0578
20.0829
20.0651
20.0829
20.065
20.0921
20.1024
20.0921
20.1024
20.1057
20.1053
20.1058
20.1055
20.1006
20.1006
20.1006
20.1006
20.0994
20.0994
20.0995
20.0995
20.1024
20.0921
20.1024
20.0921
20.1053
20.1057
20.1054
20.1058
20.0579
20.1147
20.0578
20.1147
20.0651
20.0829
20.065
20.0828
20.115
20.0586
20.1149
20.0582
20.0832
20.0653
20.0831
20.0652
20.0923
20.1025
20.0922
20.1025
20.1055
20.1051
20.1056
20.1052
20.1007
20.1007
20.1007
20.1006
20.0994
20.0994
20.0994
20.0994
20.1025
20.0923
20.1025
20.0922
20.1051
20.1055
20.1052
20.1056
20.0586
20.1149
20.0582
20.1148
20.0654
20.0832
20.0652
20.0831
20.1153
20.0595
20.1151
20.059
20.0838
20.0657
20.0835
20.0655
20.0926
20.1027
20.0925
20.1026
20.1054
20.1051
20.1055
20.1051
20.1011
20.1011
20.1009
20.1009
20.0995
20.0995
20.0994
20.0994
20.1027
20.0926
20.1026
20.0925
20.105
20.1054
20.1051
20.1055
20.0595
20.1153
20.0591
20.1151
20.0657
20.0838
20.0655
20.0835
20.1158
20.0607
20.1155
20.06
20.0845
20.0661
20.0841
20.0659
20.0931
20.103
20.0928
20.1029
20.1055
20.1051
20.1055
20.1051
20.1015
20.1015
20.1013
20.1013
20.0998
20.0998
20.0996
20.0996
20.103
20.0931
20.1029
20.0928
20.1051
20.1055
20.1051
20.1055
20.0607
20.1157
20.0601
20.1155
20.0661
20.0845
20.0659
20.0841
20.1164
20.0618
20.1161
20.0615
20.0855
20.0668
20.085
20.0663
20.0936
20.1036
20.0933
20.1033
20.1057
20.1054
20.1056
20.1053
20.1022
20.1022
20.1018
20.1018
20.1003
20.1003
20.1
20.1
20.1036
20.0936
20.1033
20.0933
20.1054
20.1056
20.1052
20.1056
20.0618
20.1164
20.0615
20.116
20.0669
20.0855
20.0663
20.085
20.1172
20.0624
20.1168
20.062
20.0867
20.068
20.0861
20.0675
20.0943
20.1042
20.094
20.1039
20.1059
20.1058
20.1058
20.1056
20.103
20.103
20.1026
20.1026
20.101
20.101
20.1006
20.1006
20.1042
20.0943
20.1039
20.094
20.1058
20.1059
20.1056
20.1058
20.0625
20.1172
20.0621
20.1168
20.0681
20.0866
20.0674
20.086
20.1181
20.0634
20.1176
20.0629
20.088
20.0692
20.0873
20.0686
20.0952
20.1051
20.0947
20.1046
20.1063
20.1064
20.1061
20.1061
20.104
20.104
20.1035
20.1035
20.1019
20.1019
20.1014
20.1014
20.1051
20.0952
20.1046
20.0947
20.1064
20.1063
20.1061
20.1061
20.0635
20.118
20.0629
20.1176
20.0693
20.088
20.0686
20.0873
20.1189
20.0646
20.1185
20.064
20.0896
20.0705
20.0888
20.0699
20.0961
20.106
20.0956
20.1055
20.1068
20.1072
20.1065
20.1068
20.1052
20.1052
20.1046
20.1046
20.103
20.103
20.1025
20.1025
20.106
20.0961
20.1055
20.0956
20.1072
20.1068
20.1068
20.1065
20.0646
20.1189
20.064
20.1185
20.0705
20.0896
20.0699
20.0888
20.1197
20.066
20.1193
20.0653
20.0913
20.0718
20.0904
20.0711
20.0971
20.1071
20.0966
20.1066
20.1074
20.1082
20.1071
20.1077
20.1065
20.1065
20.1058
20.1058
20.1043
20.1043
20.1037
20.1037
20.1071
20.0971
20.1066
20.0966
20.1082
20.1074
20.1077
20.1071
20.066
20.1196
20.0653
20.1193
20.0718
20.0913
20.0711
20.0904
20.12
20.0678
20.1199
20.0668
20.0929
20.0734
20.0921
20.0725
20.0983
20.1083
20.0977
20.1077
20.1082
20.1093
20.1078
20.1087
20.108
20.108
20.1072
20.1072
20.1058
20.1058
20.105
20.105
20.1083
20.0983
20.1077
20.0977
20.1093
20.1081
20.1087
20.1078
20.0678
20.1199
20.0669
20.1198
20.0734
20.0929
20.0726
20.0921
20.1194
20.0702
20.1198
20.0689
20.0942
20.0753
20.0936
20.0742
20.0997
20.1097
20.099
20.109
20.109
20.1105
20.1086
20.1099
20.1095
20.1095
20.1087
20.1087
20.1073
20.1073
20.1065
20.1065
20.1097
20.0997
20.109
20.099
20.1105
20.109
20.1099
20.1086
20.0702
20.1193
20.0689
20.1198
20.0753
20.0942
20.0742
20.0936
20.1148
20.0761
20.1181
20.0722
20.093
20.0793
20.0943
20.0766
20.1011
20.1112
20.1003
20.1104
20.1099
20.112
20.1094
20.1113
20.1112
20.1112
20.1103
20.1103
20.1091
20.1091
20.1082
20.1082
20.1112
20.1011
20.1104
20.1003
20.112
20.1099
20.1112
20.1094
20.0761
20.1147
20.0722
20.1181
20.0793
20.093
20.0767
20.0943
20.1265
20.0656
20.1104
20.081
20.1018
20.073
20.0904
20.0831
20.1024
20.1133
20.1023
20.1122
20.1113
20.114
20.1108
20.113
20.1128
20.1128
20.112
20.112
20.1109
20.1109
20.11
20.11
20.1133
20.1024
20.1122
20.1023
20.114
20.1113
20.113
20.1108
20.0657
20.1265
20.081
20.1104
20.073
20.1018
20.0831
20.0904
20.1785
20.0468
20.1524
20.0615
20.1709
20.0499
20.1467
20.0644
20.0825
20.0978
20.0899
20.0994
20.0861
20.0987
20.0921
20.0997
20.1002
20.1002
20.1003
20.1003
20.1002
20.1002
20.1002
20.1002
20.0978
20.0825
20.0994
20.0899
20.0987
20.0861
20.0997
20.0922
20.0468
20.1784
20.0615
20.1523
20.0499
20.1708
20.0645
20.1466
20.1574
20.0751
20.164
20.0652
20.1543
20.0725
20.1595
20.0647
20.081
20.0932
20.0819
20.0955
20.0841
20.0952
20.0851
20.0971
20.0986
20.0986
20.0996
20.0996
20.0991
20.0991
20.0998
20.0998
20.0932
20.081
20.0955
20.0819
20.0952
20.0841
20.0971
20.0851
20.0751
20.1573
20.0652
20.1639
20.0725
20.1542
20.0647
20.1594
20.1517
20.0834
20.154
20.0804
20.1495
20.0791
20.1515
20.0767
20.082
20.0911
20.0813
20.0919
20.0848
20.0934
20.0842
20.0941
20.0962
20.0962
20.0974
20.0974
20.0973
20.0973
20.0982
20.0982
20.0911
20.082
20.0919
20.0813
20.0934
20.0848
20.0941
20.0842
20.0834
20.1516
20.0804
20.1539
20.079
20.1495
20.0767
20.1515
20.1487
20.0861
20.15
20.0852
20.1466
20.0809
20.1479
20.0803
20.0835
20.0904
20.0828
20.0906
20.0863
20.0931
20.0855
20.0931
20.0945
20.0945
20.0952
20.0952
20.0958
20.0958
20.0965
20.0965
20.0904
20.0835
20.0906
20.0828
20.0931
20.0863
20.0931
20.0856
20.0861
20.1486
20.0851
20.1499
20.0809
20.1466
20.0803
20.1479
20.1467
20.0867
20.1476
20.0866
20.1445
20.0808
20.1455
20.081
20.0846
20.0905
20.0841
20.0904
20.0876
20.0935
20.087
20.0932
20.0936
20.0936
20.0939
20.0939
20.0951
20.0951
20.0954
20.0954
20.0905
20.0846
20.0904
20.0841
20.0935
20.0876
20.0932
20.087
20.0867
20.1467
20.0866
20.1476
20.0808
20.1445
20.081
20.1455
20.1452
20.0863
20.1459
20.0866
20.1428
20.0799
20.1436
20.0804
20.0852
20.0909
20.085
20.0906
20.0884
20.0942
20.088
20.0938
20.0934
20.0934
20.0934
20.0934
20.0951
20.0951
20.095
20.095
20.0909
20.0852
20.0906
20.085
20.0942
20.0884
20.0938
20.088
20.0863
20.1451
20.0865
20.1458
20.0799
20.1427
20.0804
20.1436
20.1438
20.0855
20.1445
20.0859
20.1412
20.0787
20.142
20.0793
20.0855
20.0914
20.0854
20.0911
20.0889
20.0951
20.0887
20.0947
20.0937
20.0937
20.0935
20.0935
20.0955
20.0955
20.0953
20.0953
20.0914
20.0855
20.0911
20.0854
20.0951
20.0889
20.0947
20.0887
20.0854
20.1438
20.0859
20.1444
20.0787
20.1412
20.0793
20.1419
20.1426
20.0844
20.1432
20.085
20.1399
20.0773
20.1405
20.078
20.0855
20.0919
20.0855
20.0916
20.0891
20.0959
20.089
20.0955
20.0943
20.0943
20.094
20.094
20.0962
20.0962
20.0958
20.0958
20.0919
20.0855
20.0916
20.0855
20.0959
20.0891
20.0955
20.089
20.0844
20.1426
20.0849
20.1431
20.0773
20.1398
20.078
20.1405
20.1415
20.0833
20.142
20.0839
20.1386
20.0758
20.1392
20.0765
20.0854
20.0924
20.0855
20.0922
20.0891
20.0967
20.0891
20.0963
20.095
20.095
20.0947
20.0947
20.097
20.097
20.0966
20.0966
20.0924
20.0854
20.0922
20.0855
20.0967
20.0891
20.0963
20.0891
20.0833
20.1415
20.0839
20.142
20.0758
20.1386
20.0765
20.1392
20.1405
20.0822
20.141
20.0827
20.1375
20.0744
20.138
20.0751
20.0852
20.0929
20.0853
20.0926
20.0889
20.0974
20.089
20.097
20.0958
20.0957
20.0954
20.0954
20.0979
20.0979
20.0975
20.0974
20.0929
20.0852
20.0926
20.0853
20.0974
20.0889
20.097
20.089
20.0822
20.1404
20.0827
20.1409
20.0744
20.1374
20.0751
20.138
20.1395
20.0811
20.14
20.0816
20.1364
20.0731
20.1369
20.0737
20.0848
20.0932
20.085
20.093
20.0887
20.0979
20.0888
20.0977
20.0964
20.0964
20.0961
20.0961
20.0986
20.0986
20.0983
20.0983
20.0932
20.0848
20.093
20.085
20.0979
20.0887
20.0977
20.0888
20.0811
20.1395
20.0816
20.1399
20.0731
20.1363
20.0737
20.1369
20.1386
20.08
20.139
20.0805
20.1354
20.0718
20.1359
20.0724
20.0845
20.0935
20.0847
20.0933
20.0883
20.0983
20.0885
20.0981
20.097
20.097
20.0967
20.0967
20.0993
20.0993
20.099
20.099
20.0935
20.0845
20.0933
20.0847
20.0983
20.0884
20.0981
20.0885
20.08
20.1386
20.0805
20.139
20.0718
20.1353
20.0724
20.1358
20.1377
20.079
20.1382
20.0795
20.1344
20.0706
20.1349
20.0712
20.0841
20.0936
20.0843
20.0936
20.088
20.0986
20.0882
20.0985
20.0975
20.0975
20.0973
20.0973
20.0999
20.0999
20.0996
20.0996
20.0936
20.0841
20.0936
20.0843
20.0986
20.088
20.0985
20.0882
20.079
20.1377
20.0795
20.1381
20.0706
20.1344
20.0712
20.1348
20.1369
20.0781
20.1373
20.0785
20.1335
20.0695
20.134
20.0701
20.0837
20.0937
20.0839
20.0937
20.0876
20.0988
20.0878
20.0987
20.0979
20.0979
20.0977
20.0977
20.1003
20.1003
20.1001
20.1001
20.0937
20.0837
20.0937
20.0839
20.0988
20.0876
20.0987
20.0878
20.0781
20.1369
20.0785
20.1373
20.0695
20.1335
20.0701
20.1339
20.1362
20.0772
20.1365
20.0776
20.1327
20.0685
20.1331
20.069
20.0832
20.0937
20.0834
20.0937
20.0871
20.0988
20.0873
20.0988
20.0982
20.0982
20.0981
20.0981
20.1006
20.1006
20.1005
20.1005
20.0937
20.0832
20.0937
20.0835
20.0988
20.0871
20.0988
20.0873
20.0772
20.1361
20.0776
20.1365
20.0685
20.1326
20.069
20.133
20.1354