/*--------------------------------*- C++ -*----------------------------------*\
  =========                 |
  \\      /  F ield         | OpenFOAM: The Open Source CFD Toolbox
   \\    /   O peration     | Website:  https://openfoam.org
    \\  /    A nd           | Version:  9
     \\/     M anipulation  |
\*---------------------------------------------------------------------------*/
FoamFile
{
    format      ascii;
    class       surfaceScalarField;
    location    "4.6";
    object      phi;
}
// * * * * * * * * * * * * * * * * * * * * * * * * * * * * * * * * * * * * * //

dimensions      [0 3 -1 0 0 0 0];

internalField   nonuniform List<scalar> 
104044
(
9.84032e-07
-7.14793e-05
-3.73582e-06
6.89372e-05
5.29392e-06
-4.50959e-05
1.61093e-06
-3.90173e-07
4.75702e-05
-2.71102e-06
7.68225e-07
-6.9808e-06
7.07054e-06
3.13391e-06
-3.15349e-07
-3.58122e-06
-3.9105e-07
-8.89746e-05
8.56298e-05
-2.99939e-05
2.18417e-07
3.09954e-05
-1.99106e-07
9.7628e-08
-3.03449e-08
-4.93561e-05
-2.8466e-06
4.92723e-05
2.57053e-06
-5.15485e-05
-2.28677e-06
-1.17545e-09
5.13857e-05
2.42046e-06
-2.17395e-08
-2.56656e-06
1.91062e-06
-2.26973e-06
-3.3603e-11
2.0152e-06
-7.46489e-10
-4.61982e-05
4.35708e-05
-5.35051e-05
-2.13945e-09
5.12197e-05
-1.01667e-08
-2.66722e-09
5.82392e-12
-5.26115e-05
-2.06401e-06
5.24588e-05
2.2156e-06
-5.26121e-05
-2.06387e-06
1.17856e-09
5.24593e-05
2.21552e-06
4.44934e-12
-2.06768e-06
1.86663e-06
-2.06748e-06
3.75826e-11
1.8665e-06
1.69364e-12
-5.58894e-05
5.38233e-05
-5.58905e-05
2.13783e-09
5.38245e-05
-1.3137e-12
2.66118e-09
3.03251e-08
-5.155e-05
-2.28657e-06
5.13871e-05
2.42035e-06
-4.93573e-05
-2.84702e-06
3.89937e-07
4.92735e-05
2.57126e-06
2.17156e-08
-2.26928e-06
2.01494e-06
-2.56659e-06
3.15067e-07
1.91116e-06
7.75363e-10
-5.35094e-05
5.12242e-05
-4.6207e-05
-2.18051e-07
4.35788e-05
1.01627e-08
-9.73909e-08
-9.83114e-07
-4.50938e-05
1.60531e-06
4.75668e-05
-2.70532e-06
-7.1472e-05
-3.73188e-06
6.89326e-05
5.28812e-06
-7.67233e-07
3.12812e-06
-3.57616e-06
-6.97242e-06
7.06206e-06
3.90139e-07
-3.00008e-05
3.0998e-05
-8.89573e-05
8.56156e-05
1.98516e-07
2.95895e-07
-6.67125e-05
-4.97488e-06
6.49265e-05
6.46497e-06
-4.90795e-05
4.79423e-06
-1.07153e-07
5.00265e-05
-5.33821e-06
5.84201e-07
-4.30714e-06
5.94761e-06
3.40213e-06
-2.16438e-07
-4.11078e-06
-1.40404e-06
-8.22245e-05
7.86536e-05
-3.30405e-05
6.57454e-07
3.57733e-05
-9.01783e-07
4.55235e-07
2.06708e-08
-4.9208e-05
-1.24945e-06
4.92184e-05
1.11133e-06
-5.10967e-05
-1.35389e-06
2.12887e-09
5.07663e-05
1.70284e-06
-9.06474e-09
-2.02454e-06
1.88142e-06
-1.86769e-06
-8.64604e-10
2.14848e-06
6.55192e-08
-4.19748e-05
4.13173e-05
-4.93785e-05
4.41121e-09
4.80857e-05
2.66931e-08
1.8568e-10
4.3587e-12
-5.21708e-05
-1.26356e-06
5.17897e-05
1.6468e-06
-5.21713e-05
-1.26359e-06
-2.11222e-09
5.17902e-05
1.64687e-06
2.90211e-12
-1.74325e-06
2.03036e-06
-1.74325e-06
8.72239e-10
2.03038e-06
3.5649e-12
-5.20802e-05
5.0821e-05
-5.20814e-05
-4.38825e-09
5.08222e-05
2.26419e-12
-1.77866e-10
-2.05599e-08
-5.1098e-05
-1.35413e-06
5.07674e-05
1.7032e-06
-4.92089e-05
-1.25059e-06
1.07201e-07
4.92186e-05
1.11307e-06
9.10917e-09
-1.86786e-06
2.14869e-06
-2.02556e-06
2.16412e-07
1.88288e-06
-6.53543e-08
-4.93828e-05
4.80896e-05
-4.19813e-05
-6.56752e-07
4.13221e-05
-2.6603e-08
-4.54699e-07
-2.96069e-07
-4.90757e-05
4.78909e-06
5.00226e-05
-5.33277e-06
-6.67093e-05
-4.96984e-06
6.4924e-05
6.45904e-06
-5.84011e-07
3.39652e-06
-4.10497e-06
-4.30258e-06
5.94193e-06
1.40204e-06
-3.30395e-05
3.57698e-05
-8.22132e-05
7.86454e-05
9.00248e-07
-1.93304e-07
-6.34365e-05
-5.16107e-06
6.21711e-05
6.6198e-06
-5.07092e-05
5.54655e-06
1.13116e-08
5.12535e-05
-6.29544e-06
3.83913e-08
-5.08099e-06
6.53259e-06
5.28016e-06
-3.38139e-08
-5.89066e-06
-2.27106e-06
-7.54149e-05
7.25249e-05
-3.8395e-05
9.53587e-07
4.0717e-05
-1.8423e-06
8.16066e-07
1.41519e-07
-4.93142e-05
-4.48062e-07
4.95074e-05
1.24646e-07
-5.05074e-05
-6.65067e-07
2.04045e-08
5.03471e-05
9.46515e-07
7.7796e-08
-7.42694e-07
5.35246e-07
-9.42435e-07
1.0398e-08
1.2687e-06
1.63535e-07
-4.12783e-05
4.16203e-05
-4.72431e-05
2.37756e-08
4.67178e-05
1.12323e-07
1.24772e-08
-1.79177e-11
-5.14402e-05
-6.70066e-07
5.11633e-05
9.67344e-07
-5.14406e-05
-6.70125e-07
-2.04738e-08
5.11637e-05
9.67466e-07
3.64285e-11
-8.95221e-07
1.25509e-06
-8.95266e-07
-1.02659e-08
1.25517e-06
-9.42414e-11
-4.99383e-05
4.92921e-05
-4.99394e-05
-2.41757e-08
4.92934e-05
-5.41696e-12
-1.24577e-08
-1.41197e-07
-5.05083e-05
-6.65577e-07
5.03477e-05
9.46926e-07
-4.9314e-05
-4.4879e-07
-1.13285e-08
4.95065e-05
1.26419e-07
-7.75326e-08
-9.42708e-07
1.2691e-06
-7.43677e-07
3.3871e-08
5.36923e-07
-1.64459e-07
-4.72464e-05
4.67212e-05
-4.12818e-05
-9.53222e-07
4.16218e-05
-1.12022e-07
-8.15342e-07
1.92722e-07
-5.07054e-05
5.54266e-06
5.12498e-05
-6.2911e-06
-6.34346e-05
-5.15671e-06
6.21696e-05
6.6144e-06
-3.87908e-08
5.27576e-06
-5.88585e-06
-5.07629e-06
6.52689e-06
2.26842e-06
-3.83902e-05
4.07113e-05
-7.54091e-05
7.25209e-05
1.84001e-06
-5.72908e-07
-6.11156e-05
-5.10879e-06
6.02198e-05
6.57757e-06
-5.16904e-05
5.68224e-06
4.5707e-08
5.20478e-05
-6.65826e-06
-3.93094e-07
-5.08609e-06
6.53467e-06
5.57786e-06
3.62598e-08
-6.4441e-06
-2.9408e-06
-7.0042e-05
6.7874e-05
-4.26525e-05
1.11593e-06
4.4278e-05
-2.60318e-06
1.03914e-06
2.5094e-07
-4.97468e-05
-2.07656e-07
5.00098e-05
-2.60558e-07
-5.02789e-05
-3.08606e-07
4.46338e-08
5.02839e-05
5.09989e-07
1.96938e-07
-2.79519e-07
-1.2055e-07
-4.53759e-07
3.16424e-08
6.87179e-07
2.29949e-07
-4.21805e-05
4.28588e-05
-4.6426e-05
4.60271e-08
4.63013e-05
1.99431e-07
3.75091e-08
2.63716e-11
-5.09699e-05
-3.94897e-07
5.08479e-05
5.61433e-07
-5.09701e-05
-3.95605e-07
-4.39777e-08
5.08481e-05
5.61575e-07
1.33412e-10
-5.06454e-07
7.31421e-07
-5.0628e-07
-3.14867e-08
7.31517e-07
-1.75313e-09
-4.88223e-05
4.84752e-05
-4.88226e-05
-5.14159e-08
4.84767e-05
8.17595e-10
-3.4698e-08
-2.50203e-07
-5.02793e-05
-3.08746e-07
5.02839e-05
5.10344e-07
-4.97459e-05
-2.0708e-07
-4.59009e-08
5.00084e-05
-2.59633e-07
-1.96879e-07
-4.53784e-07
6.87573e-07
-2.8068e-07
-3.61826e-08
-1.19478e-07
-2.34776e-07
-4.64284e-05
4.6303e-05
-4.21826e-05
-1.11722e-06
4.2858e-05
-1.95691e-07
-1.03721e-06
5.72051e-07
-5.16871e-05
5.67925e-06
5.20445e-05
-6.6546e-06
-6.11146e-05
-5.10486e-06
6.02189e-05
6.57268e-06
3.92487e-07
5.57413e-06
-6.44008e-06
-5.08216e-06
6.52965e-06
2.93735e-06
-4.26473e-05
4.4272e-05
-7.00396e-05
6.78721e-05
2.60092e-06
-8.49456e-07
-5.94675e-05
-5.03476e-06
5.8827e-05
6.52475e-06
-5.23404e-05
5.71571e-06
3.09141e-08
5.2584e-05
-6.83966e-06
-7.15536e-07
-5.01563e-06
6.48338e-06
5.64315e-06
4.22288e-08
-6.69354e-06
-3.43033e-06
-6.60319e-05
6.44275e-05
-4.55965e-05
1.19089e-06
4.6691e-05
-3.17353e-06
1.15109e-06
3.34617e-07
-5.02835e-05
-1.82285e-07
5.05617e-05
-3.99627e-07
-5.03451e-05
-1.22205e-07
7.02209e-08
5.04496e-05
2.82065e-07
2.93176e-07
-1.79863e-07
-3.44824e-07
-1.9855e-07
5.66672e-08
3.73859e-07
2.87616e-07
-4.35698e-05
4.42908e-05
-4.63017e-05
7.22186e-08
4.63949e-05
2.60193e-07
6.12726e-08
4.42971e-11
-5.07891e-05
-2.33743e-07
5.07816e-05
3.11443e-07
-5.07892e-05
-2.3385e-07
-7.00867e-08
5.07816e-05
3.11566e-07
9.12206e-11
-3.0295e-07
4.18306e-07
-3.02848e-07
-5.66203e-08
4.18431e-07
2.97612e-11
-4.82328e-05
4.80713e-05
-4.82334e-05
-7.23007e-08
4.80719e-05
7.08313e-10
-5.88917e-08
-3.34289e-07
-5.03449e-05
-1.2251e-07
5.04493e-05
2.82352e-07
-5.02821e-05
-1.82525e-07
-3.10631e-08
5.05602e-05
-3.98812e-07
-2.9286e-07
-1.9898e-07
3.74196e-07
-1.80417e-07
-4.2268e-08
-3.43914e-07
-2.87488e-07
-4.63032e-05
4.63959e-05
-4.35694e-05
-1.19036e-06
4.42898e-05
-2.58067e-07
-1.14993e-06
8.4864e-07
-5.23374e-05
5.71263e-06
5.25813e-05
-6.83616e-06
-5.94669e-05
-5.0314e-06
5.88266e-05
6.5204e-06
7.14782e-07
5.63995e-06
-6.68997e-06
-5.01212e-06
6.47884e-06
3.42749e-06
-4.55911e-05
4.66859e-05
-6.60309e-05
6.4427e-05
3.17089e-06
-1.0458e-06
-5.82862e-05
-4.97394e-06
5.78244e-05
6.48155e-06
-5.27907e-05
5.73643e-06
-6.4877e-09
5.29678e-05
-6.95286e-06
-9.46626e-07
-4.94735e-06
6.4348e-06
5.66531e-06
1.37385e-08
-6.83232e-06
-3.78019e-06
-6.3064e-05
6.18702e-05
-4.75779e-05
1.21339e-06
4.83207e-05
-3.58383e-06
1.19462e-06
3.91169e-07
-5.08318e-05
-2.28844e-07
5.10942e-05
-4.31225e-07
-5.05835e-05
-3.03436e-08
9.50108e-08
5.07407e-05
1.69303e-07
3.62403e-07
-2.00246e-07
-4.18476e-07
-6.69584e-08
8.20331e-08
2.13465e-07
3.28564e-07
-4.49784e-05
4.56344e-05
-4.65522e-05
9.33406e-08
4.67571e-05
3.06758e-07
8.24405e-08
4.35771e-11
-5.08158e-05
-1.24635e-07
5.08843e-05
1.51085e-07
-5.08157e-05
-1.24723e-07
-9.48662e-08
5.08842e-05
1.51168e-07
4.14604e-11
-1.72673e-07
2.20527e-07
-1.72769e-07
-8.18977e-08
2.2063e-07
4.63376e-11
-4.7981e-05
4.79497e-05
-4.79815e-05
-9.3204e-08
4.795e-05
4.77381e-11
-8.22989e-08
-3.90864e-07
-5.0583e-05
-3.05395e-08
5.07401e-05
1.69464e-07
-5.08302e-05
-2.28942e-07
6.25451e-09
5.10926e-05
-4.30574e-07
-3.6209e-07
-6.72129e-08
2.13683e-07
-2.00406e-07
-1.39344e-08
-4.1776e-07
-3.28303e-07
-4.65528e-05
4.67574e-05
-4.4977e-05
-1.21297e-06
4.56327e-05
-3.06491e-07
-1.19415e-06
1.04496e-06
-5.27881e-05
5.7335e-06
5.29655e-05
-6.94954e-06
-5.82859e-05
-4.97088e-06
5.78242e-05
6.47756e-06
9.45802e-07
5.66234e-06
-6.82896e-06
-4.94417e-06
6.43067e-06
3.77735e-06
-4.7573e-05
4.83162e-05
-6.30638e-05
6.18703e-05
3.58101e-06
-1.18217e-06
-5.7432e-05
-4.92066e-06
5.70962e-05
6.43859e-06
-5.31228e-05
5.74361e-06
-5.07211e-08
5.32587e-05
-7.01103e-06
-1.10873e-06
-4.89054e-06
6.39171e-06
5.67821e-06
-2.80242e-08
-6.9139e-06
-4.02231e-06
-6.08519e-05
5.99536e-05
-4.89264e-05
1.20725e-06
4.94405e-05
-3.87225e-06
1.20027e-06
4.24857e-07
-5.13424e-05
-2.88289e-07
5.15797e-05
-4.24575e-07
-5.09122e-05
1.26797e-08
1.1653e-07
5.10936e-05
1.14287e-07
4.06092e-07
-2.56881e-07
-4.25415e-07
-6.52474e-09
1.05244e-07
1.35832e-07
3.55955e-07
-4.62376e-05
4.68006e-05
-4.69896e-05
1.10278e-07
4.72479e-05
3.40252e-07
1.01287e-07
5.12917e-11
-5.09786e-05
-4.9333e-08
5.10959e-05
4.85665e-08
-5.09785e-05
-4.9393e-08
-1.16372e-07
5.10957e-05
4.86027e-08
4.67751e-11
-8.19571e-08
9.281e-08
-8.20325e-08
-1.05094e-07
9.28692e-08
5.28866e-11
-4.79689e-05
4.80298e-05
-4.79692e-05
-1.10132e-07
4.80299e-05
4.86024e-11
-1.01148e-07
-4.24573e-07
-5.09115e-05
1.25122e-08
5.10929e-05
1.14358e-07
-5.13408e-05
-2.88305e-07
5.04406e-08
5.15781e-05
-4.24026e-07
-4.05801e-07
-6.70482e-09
1.35949e-07
-2.56934e-07
2.77672e-08
-4.24826e-07
-3.55701e-07
-4.69895e-05
4.72476e-05
-4.62357e-05
-1.2069e-06
4.67986e-05
-3.39997e-07
-1.19989e-06
1.18135e-06
-5.31206e-05
5.7408e-06
5.32568e-05
-7.00785e-06
-5.74318e-05
-4.91781e-06
5.70961e-05
6.43488e-06
1.10791e-06
5.67538e-06
-6.91069e-06
-4.8876e-06
6.38789e-06
4.01954e-06
-4.89223e-05
4.94366e-05
-6.08521e-05
5.99539e-05
3.86947e-06
-1.27581e-06
-5.68088e-05
-4.87235e-06
5.6563e-05
6.39397e-06
-5.33816e-05
5.7399e-06
-9.39422e-08
5.34919e-05
-7.03206e-06
-1.22141e-06
-4.84353e-06
6.35232e-06
5.68303e-06
-7.19681e-08
-6.95533e-06
-4.18658e-06
-5.91825e-05
5.84968e-05
-4.98645e-05
1.18697e-06
5.02308e-05
-4.07248e-06
1.18656e-06
4.41913e-07
-5.18023e-05
-3.41009e-07
5.20142e-05
-4.06763e-07
-5.1277e-05
3.0218e-08
1.34065e-07
5.1465e-05
8.9627e-08
4.30894e-07
-3.13701e-07
-4.11768e-07
2.47102e-08
1.24544e-07
9.82285e-08
3.72595e-07
-4.73116e-05
4.77849e-05
-4.75186e-05
1.22694e-07
4.77987e-05
3.61859e-07
1.15921e-07
5.87934e-11
-5.12266e-05
3.09587e-09
5.13699e-05
-1.24699e-08
-5.12264e-05
3.06069e-09
-1.3389e-07
5.13697e-05
-1.24689e-08
5.43944e-11
-2.08498e-08
1.46453e-08
-2.09018e-08
-1.24378e-07
1.46605e-08
6.01643e-11
-4.81248e-05
4.82506e-05
-4.81249e-05
-1.22539e-07
4.82505e-05
5.59599e-11
-1.15772e-07
-4.41655e-07
-5.12762e-05
3.01639e-08
5.14642e-05
8.96216e-08
-5.18008e-05
-3.4098e-07
9.3634e-08
5.20127e-05
-4.06279e-07
-4.30626e-07
2.46228e-08
9.82571e-08
-3.13692e-07
7.16746e-08
-4.1126e-07
-3.72347e-07
-4.75181e-05
4.7798e-05
-4.73095e-05
-1.18669e-06
4.77829e-05
-3.61611e-07
-1.18625e-06
1.27502e-06
-5.33798e-05
5.73719e-06
5.34902e-05
-7.029e-06
-5.68087e-05
-4.86967e-06
5.65629e-05
6.39048e-06
1.22061e-06
5.6803e-06
-6.95224e-06
-4.84078e-06
6.34875e-06
4.18389e-06
-4.98609e-05
5.02275e-05
-5.91829e-05
5.84971e-05
4.06978e-06
-1.33776e-06
-5.63512e-05
-4.82063e-06
5.61704e-05
6.3392e-06
-5.35947e-05
5.72007e-06
-1.32552e-07
5.36888e-05
-7.01945e-06
-1.29693e-06
-4.79328e-06
6.30204e-06
5.67012e-06
-1.12705e-07
-6.95711e-06
-4.29011e-06
-5.79056e-05
5.73751e-05
-5.05369e-05
1.15925e-06
5.08076e-05
-4.20214e-06
1.1619e-06
4.46835e-07
-5.22129e-05
-3.82055e-07
5.2402e-05
-3.86468e-07
-5.16516e-05
3.00975e-08
1.4743e-07
5.18388e-05
8.21043e-08
4.41036e-07
-3.60174e-07
-3.92255e-07
3.09266e-08
1.39717e-07
8.37558e-08
3.8097e-07
-4.82128e-05
4.8609e-05
-4.80775e-05
1.30671e-07
4.83579e-05
3.73854e-07
1.25913e-07
6.3889e-11
-5.15232e-05
3.74059e-08
5.16845e-05
-5.13397e-08
-5.15229e-05
3.738e-08
-1.47242e-07
5.16842e-05
-5.13646e-08
6.11754e-11
2.15068e-08
-3.50812e-08
2.14742e-08
-1.39537e-07
-3.50938e-08
6.65184e-11
-4.83979e-05
4.85659e-05
-4.83978e-05
-1.3051e-07
4.85658e-05
6.28711e-11
-1.25757e-07
-4.46593e-07
-5.16508e-05
3.00976e-08
5.1838e-05
8.20507e-08
-5.22115e-05
-3.82004e-07
1.32237e-07
5.24007e-05
-3.86024e-07
-4.4079e-07
3.09005e-08
8.37246e-08
-3.60133e-07
1.12392e-07
-3.91798e-07
-3.80723e-07
-4.80768e-05
4.83571e-05
-4.82108e-05
-1.159e-06
4.86071e-05
-3.73611e-07
-1.16164e-06
1.337e-06
-5.35931e-05
5.71744e-06
5.36874e-05
-7.0165e-06
-5.63511e-05
-4.81808e-06
5.61703e-05
6.3359e-06
1.29616e-06
5.66747e-06
-6.95414e-06
-4.79068e-06
6.29867e-06
4.28752e-06
-5.05338e-05
5.08047e-05
-5.79059e-05
5.73754e-05
4.19953e-06
-1.37742e-06
-5.60134e-05
-4.76698e-06
5.58798e-05
6.27796e-06
-5.3779e-05
5.68904e-06
-1.65537e-07
5.38633e-05
-6.98525e-06
-1.34708e-06
-4.7441e-06
6.24815e-06
5.64809e-06
-1.48274e-07
-6.93703e-06
-4.35063e-06
-5.69151e-05
5.64988e-05
-5.10381e-05
1.12893e-06
5.12476e-05
-4.28411e-06
1.13343e-06
4.44338e-07
-5.25793e-05
-4.12721e-07
5.27474e-05
-3.6517e-07
-5.20216e-05
2.18085e-08
1.57888e-07
5.22022e-05
8.39634e-08
4.42014e-07
-3.95567e-07
-3.72067e-07
2.62646e-08
1.51531e-07
8.14549e-08
3.83745e-07
-4.89676e-05
4.93e-05
-4.86315e-05
1.35034e-07
4.8902e-05
3.79306e-07
1.31996e-07
3.56671e-11
-5.18483e-05
5.87666e-08
5.20159e-05
-6.85188e-08
-5.18481e-05
5.87554e-08
-1.57751e-07
5.20156e-05
-6.85548e-08
6.02886e-11
4.90339e-08
-6.14079e-08
4.90139e-08
-1.51346e-07
-6.14411e-08
5.42776e-11
-4.87469e-05
4.89406e-05
-4.87467e-05
-1.34895e-07
4.89404e-05
6.53963e-11
-1.31837e-07
-4.44142e-07
-5.20208e-05
2.18784e-08
5.22014e-05
8.38992e-08
-5.25781e-05
-4.12634e-07
1.65541e-07
5.27457e-05
-3.64713e-07
-4.41776e-07
2.62893e-08
8.13882e-08
-3.95512e-07
1.47991e-07
-3.71638e-07
-3.83481e-07
-4.86306e-05
4.89011e-05
-4.89657e-05
-1.12862e-06
4.92982e-05
-3.79054e-07
-1.13318e-06
1.37671e-06
-5.37777e-05
5.68644e-06
5.38625e-05
-6.98244e-06
-5.60133e-05
-4.76458e-06
5.58798e-05
6.27476e-06
1.34636e-06
5.64552e-06
-6.93416e-06
-4.74162e-06
6.24493e-06
4.34817e-06
-5.10355e-05
5.12451e-05
-5.69153e-05
5.64989e-05
4.2816e-06
-1.39909e-06
-5.57627e-05
-4.70926e-06
5.56621e-05
6.20894e-06
-5.39454e-05
5.64071e-06
-1.81928e-07
5.40186e-05
-6.93108e-06
-1.37725e-06
-4.68662e-06
6.18096e-06
5.60751e-06
-1.76867e-07
-6.88997e-06
-4.37726e-06
-5.61367e-05
5.58046e-05
-5.14282e-05
1.09715e-06
5.15945e-05
-4.3245e-06
1.1024e-06
4.38643e-07
-5.29049e-05
-4.31182e-07
5.30577e-05
-3.42128e-07
-5.23768e-05
8.1846e-09
1.66092e-07
5.25487e-05
9.2399e-08
4.36476e-07
-4.20548e-07
-3.50353e-07
1.49592e-08
1.60316e-07
8.66827e-08
3.82667e-07
-4.96021e-05
4.98854e-05
-4.9162e-05
1.36684e-07
4.94162e-05
3.79775e-07
1.34732e-07
2.50714e-10
-5.21822e-05
6.98746e-08
5.23493e-05
-7.11538e-08
-5.2182e-05
6.98185e-08
-1.65282e-07
5.2349e-05
-7.12455e-08
-6.86832e-11
6.47473e-08
-7.06428e-08
6.4757e-08
-1.60556e-07
-7.06603e-08
1.42955e-10
-4.91401e-05
4.93465e-05
-4.91399e-05
-1.3639e-07
4.93462e-05
2.90283e-11
-1.34675e-07
-4.3678e-07
-5.23764e-05
7.9827e-09
5.25477e-05
9.21326e-08
-5.2905e-05
-4.32017e-07
1.87447e-07
5.30555e-05
-3.42683e-07
-4.37404e-07
1.51782e-08
8.6709e-08
-4.19956e-07
1.72549e-07
-3.49287e-07
-3.82402e-07
-4.91612e-05
4.94152e-05
-4.96004e-05
-1.09756e-06
4.98836e-05
-3.79587e-07
-1.10181e-06
1.40001e-06
-5.39429e-05
5.63917e-06
5.40187e-05
-6.92755e-06
-5.5762e-05
-4.70661e-06
5.56624e-05
6.20619e-06
1.37543e-06
5.60444e-06
-6.88768e-06
-4.68444e-06
6.17771e-06
4.37483e-06
-5.14257e-05
5.15925e-05
-5.61365e-05
5.58048e-05
4.32205e-06
-1.40988e-06
-5.55725e-05
-4.64798e-06
5.54949e-05
6.13537e-06
-5.40912e-05
5.57865e-06
-1.9797e-07
5.41564e-05
-6.85574e-06
-1.39323e-06
-4.62961e-06
6.11253e-06
5.55434e-06
-1.91657e-07
-6.82851e-06
-4.37792e-06
-5.55139e-05
5.52438e-05
-5.17384e-05
1.06628e-06
5.18729e-05
-4.33881e-06
1.07159e-06
4.28903e-07
-5.31994e-05
-4.4319e-07
5.33347e-05
-3.1894e-07
-5.27123e-05
-7.12373e-09
1.71065e-07
5.2871e-05
1.06267e-07
4.28999e-07
-4.34685e-07
-3.27739e-07
8.40037e-10
1.66887e-07
9.77036e-08
3.78861e-07
-5.01449e-05
5.03892e-05
-4.96591e-05
1.36298e-07
4.98946e-05
3.77392e-07
1.35312e-07
7.86497e-11
-5.25123e-05
7.29351e-08
5.26736e-05
-6.3222e-08
-5.25121e-05
7.29314e-08
-1.70814e-07
5.26734e-05
-6.32881e-08
-8.66459e-12
7.15326e-08
-6.7661e-08
7.15384e-08
-1.6697e-07
-6.77008e-08
6.41988e-11
-4.95533e-05
4.97625e-05
-4.9553e-05
-1.36152e-07
4.97622e-05
4.31545e-11
-1.35229e-07
-4.28498e-07
-5.27117e-05
-7.07011e-09
5.28703e-05
1.06147e-07
-5.31988e-05
-4.43301e-07
1.98697e-07
5.33336e-05
-3.18663e-07
-4.29612e-07
1.00849e-09
9.76734e-08
-4.34311e-07
1.88249e-07
-3.26883e-07
-3.78637e-07
-4.96582e-05
4.98936e-05
-5.01433e-05
-1.06617e-06
5.03875e-05
-3.77221e-07
-1.07122e-06
1.40945e-06
-5.40897e-05
5.57638e-06
5.41556e-05
-6.85294e-06
-5.55721e-05
-4.64568e-06
5.54948e-05
6.13249e-06
1.39175e-06
5.55156e-06
-6.82611e-06
-4.62743e-06
6.10948e-06
4.37558e-06
-5.17364e-05
5.1871e-05
-5.55137e-05
5.52436e-05
4.33642e-06
-1.41096e-06
-5.54226e-05
-4.58439e-06
5.53586e-05
6.05936e-06
-5.42191e-05
5.50435e-06
-2.0919e-07
5.42744e-05
-6.76144e-06
-1.39744e-06
-4.56574e-06
6.03553e-06
5.48398e-06
-2.0219e-07
-6.74193e-06
-4.35855e-06
-5.50053e-05
5.47794e-05
-5.1989e-05
1.03617e-06
5.20986e-05
-4.32722e-06
1.04069e-06
4.18242e-07
-5.34604e-05
-4.52575e-07
5.35781e-05
-2.92515e-07
-5.30207e-05
-2.24207e-08
1.71402e-07
5.31637e-05
1.26277e-07
4.19369e-07
-4.44463e-07
-3.02809e-07
-1.48226e-08
1.69953e-07
1.14502e-07
3.73176e-07
-5.06129e-05
5.08233e-05
-5.01179e-05
1.34834e-07
5.03338e-05
3.72501e-07
1.3432e-07
6.29975e-11
-5.28281e-05
6.81407e-08
5.29776e-05
-4.63522e-08
-5.28278e-05
6.81488e-08
-1.71224e-07
5.29774e-05
-4.64191e-08
6.50466e-11
7.07242e-08
-5.53003e-08
7.07268e-08
-1.69771e-07
-5.53649e-08
6.0455e-11
-4.99675e-05
5.01704e-05
-4.99672e-05
-1.34699e-07
5.01701e-05
5.42984e-11
-1.34205e-07
-4.18053e-07
-5.30201e-05
-2.23521e-08
5.31631e-05
1.2617e-07
-5.34595e-05
-4.52591e-07
2.08981e-07
5.35772e-05
-2.92127e-07
-4.1923e-07
-1.47053e-08
1.14393e-07
-4.44465e-07
2.01763e-07
-3.02403e-07
-3.72969e-07
-5.0117e-05
5.03329e-05
-5.06113e-05
-1.03603e-06
5.08218e-05
-3.72281e-07
-1.04053e-06
1.41034e-06
-5.42182e-05
5.50203e-06
5.42736e-05
-6.75879e-06
-5.54224e-05
-4.58219e-06
5.53583e-05
6.05655e-06
1.39677e-06
5.48164e-06
-6.73928e-06
-4.56352e-06
6.03268e-06
4.35627e-06
-5.19872e-05
5.20969e-05
-5.50051e-05
5.47791e-05
4.32492e-06
-1.40561e-06
-5.52952e-05
-4.52216e-06
5.52362e-05
5.98675e-06
-5.43259e-05
5.42114e-06
-2.17375e-07
5.43683e-05
-6.65178e-06
-1.39473e-06
-4.50235e-06
5.96045e-06
5.40481e-06
-2.11386e-07
-6.6396e-06
-4.32531e-06
-5.45769e-05
5.43801e-05
-5.21921e-05
1.00774e-06
5.22802e-05
-4.29984e-06
1.01147e-06
4.0716e-07
-5.36859e-05
-4.61548e-07
5.37843e-05
-2.61414e-07
-5.32965e-05
-3.97251e-08
1.69543e-07
5.34208e-05
1.53064e-07
4.08514e-07
-4.53201e-07
-2.74517e-07
-3.05509e-08
1.6884e-07
1.37461e-07
3.66429e-07
-5.10154e-05
5.11951e-05
-5.0537e-05
1.3272e-07
5.0731e-05
3.66189e-07
1.32501e-07
6.01715e-11
-5.31181e-05
5.61537e-08
5.3251e-05
-1.96238e-08
-5.31179e-05
5.61674e-08
-1.69372e-07
5.32508e-05
-1.96976e-08
6.08138e-11
6.23557e-08
-3.40416e-08
6.23669e-08
-1.68668e-07
-3.41095e-08
5.93243e-11
-5.03652e-05
5.0554e-05
-5.03649e-05
-1.32589e-07
5.05537e-05
5.96636e-11
-1.32369e-07
-4.06985e-07
-5.32959e-05
-3.96462e-08
5.34202e-05
1.52958e-07
-5.3685e-05
-4.61567e-07
2.17141e-07
5.37835e-05
-2.61026e-07
-4.08336e-07
-3.04745e-08
1.37355e-07
-4.53217e-07
2.11151e-07
-2.74131e-07
-3.66229e-07
-5.0536e-05
5.073e-05
-5.10139e-05
-1.00761e-06
5.11937e-05
-3.65988e-07
-1.01134e-06
1.40501e-06
-5.43251e-05
5.41887e-06
5.43675e-05
-6.64918e-06
-5.52949e-05
-4.52001e-06
5.52359e-05
5.98403e-06
1.39412e-06
5.40254e-06
-6.637e-06
-4.50018e-06
5.9577e-06
4.32309e-06
-5.21905e-05
5.22787e-05
-5.45766e-05
5.43796e-05
4.29761e-06
-1.39382e-06
-5.51736e-05
-4.45648e-06
5.51112e-05
5.9127e-06
-5.44051e-05
5.32201e-06
-2.22982e-07
5.44307e-05
-6.51841e-06
-1.38606e-06
-4.43887e-06
5.88754e-06
5.31457e-06
-2.18168e-07
-6.51934e-06
-4.27631e-06
-5.42e-05
5.40198e-05
-5.23524e-05
9.79877e-07
5.24182e-05
-4.25879e-06
9.83608e-07
3.95668e-07
-5.38717e-05
-4.71573e-07
5.39477e-05
-2.2312e-07
-5.35328e-05
-5.98762e-08
1.65808e-07
5.36342e-05
1.88334e-07
3.9729e-07
-4.62386e-07
-2.40435e-07
-4.9063e-08
1.66443e-07
1.67866e-07
3.58699e-07
-5.13574e-05
5.1507e-05
-5.09108e-05
1.30005e-07
5.10796e-05
3.58973e-07
1.30094e-07
5.90526e-11
-5.33701e-05
3.91262e-08
5.34807e-05
1.60927e-08
-5.33699e-05
3.91365e-08
-1.65649e-07
5.34805e-05
1.60383e-08
5.8939e-11
4.7409e-08
-1.42642e-10
4.74193e-08
-1.6628e-07
-2.04894e-10
5.71187e-11
-5.07314e-05
5.09005e-05
-5.07311e-05
-1.29879e-07
5.09002e-05
5.76876e-11
-1.29966e-07
-3.95503e-07
-5.35322e-05
-5.97973e-08
5.36337e-05
1.8823e-07
-5.38709e-05
-4.71596e-07
2.22751e-07
5.3947e-05
-2.22733e-07
-3.97122e-07
-4.89854e-08
1.67763e-07
-4.62408e-07
2.17938e-07
-2.40051e-07
-3.58506e-07
-5.09098e-05
5.10787e-05
-5.1356e-05
-9.7975e-07
5.15057e-05
-3.58778e-07
-9.8348e-07
1.39324e-06
-5.44044e-05
5.31978e-06
5.443e-05
-6.51587e-06
-5.51733e-05
-4.45439e-06
5.51109e-05
5.91005e-06
1.38548e-06
5.31234e-06
-6.51679e-06
-4.43676e-06
5.88486e-06
4.27415e-06
-5.23509e-05
5.24168e-05
-5.41995e-05
5.40193e-05
4.25663e-06
-1.37827e-06
-5.50411e-05
-4.39548e-06
5.49668e-05
5.84809e-06
-5.44485e-05
5.21418e-06
-2.26555e-07
5.44518e-05
-6.36922e-06
-1.37281e-06
-4.3769e-06
5.81978e-06
5.21318e-06
-2.22741e-07
-6.38105e-06
-4.21933e-06
-5.38499e-05
5.36737e-05
-5.24673e-05
9.53802e-07
5.25084e-05
-4.20694e-06
9.57118e-07
3.84643e-07
-5.4011e-05
-4.84367e-07
5.40604e-05
-1.76292e-07
-5.37219e-05
-8.37984e-08
1.60306e-07
5.37961e-05
2.33887e-07
3.86172e-07
-4.73647e-07
-1.98529e-07
-7.07119e-08
1.6145e-07
2.07783e-07
3.50751e-07
-5.16392e-05
5.17579e-05
-5.12329e-05
1.27023e-07
5.13728e-05
3.51258e-07
1.27273e-07
5.62488e-11
-5.35779e-05
1.62217e-08
5.36619e-05
6.00361e-08
-5.35777e-05
1.62339e-08
-1.60152e-07
5.36617e-05
5.99771e-08
5.71258e-11
2.82601e-08
3.59222e-08
2.82714e-08
-1.61295e-07
3.58647e-08
5.44214e-11
-5.1056e-05
5.11992e-05
-5.10557e-05
-1.26902e-07
5.11989e-05
5.52948e-11
-1.27151e-07
-3.84485e-07
-5.37213e-05
-8.37199e-08
5.37956e-05
2.33788e-07
-5.40103e-05
-4.84392e-07
2.26328e-07
5.40597e-05
-1.75909e-07
-3.86012e-07
-7.06338e-08
2.07682e-07
-4.73672e-07
2.22514e-07
-1.98147e-07
-3.50563e-07
-5.1232e-05
5.13719e-05
-5.16379e-05
-9.53678e-07
5.17566e-05
-3.51069e-07
-9.56994e-07
1.37771e-06
-5.44479e-05
5.212e-06
5.44512e-05
-6.36673e-06
-5.50408e-05
-4.39344e-06
5.49664e-05
5.84552e-06
1.37225e-06
5.211e-06
-6.37856e-06
-4.37484e-06
5.81718e-06
4.21723e-06
-5.2466e-05
5.25071e-05
-5.38493e-05
5.3673e-05
4.20483e-06
-1.36002e-06
-5.48804e-05
-4.33835e-06
5.47854e-05
5.79339e-06
-5.44447e-05
5.09468e-06
-2.28462e-07
5.44201e-05
-6.20165e-06
-1.35574e-06
-4.31834e-06
5.76046e-06
5.10097e-06
-2.25365e-07
-6.22417e-06
-4.15318e-06
-5.35019e-05
5.33167e-05
-5.25308e-05
9.28779e-07
5.25435e-05
-4.14654e-06
9.3199e-07
3.7424e-07
-5.40949e-05
-5.00445e-07
5.41125e-05
-1.19864e-07
-5.3854e-05
-1.13139e-07
1.54015e-07
5.3895e-05
2.92388e-07
3.75541e-07
-4.87842e-07
-1.47498e-07
-9.67734e-08
1.55776e-07
2.58664e-07
3.42603e-07
-5.18588e-05
5.19445e-05
-5.14951e-05
1.23888e-07
5.16006e-05
3.43282e-07
1.24234e-07
5.30267e-11
-5.37285e-05
-1.45289e-08
5.37788e-05
1.18194e-07
-5.37283e-05
-1.4517e-08
-1.53867e-07
5.37786e-05
1.18137e-07
5.41648e-11
2.66905e-09
8.64143e-08
2.6812e-09
-1.55627e-07
8.63565e-08
5.07831e-11
-5.1326e-05
5.14353e-05
-5.13257e-05
-1.23774e-07
5.1435e-05
5.22582e-11
-1.24118e-07
-3.74091e-07
-5.38535e-05
-1.13063e-07
5.38945e-05
2.92296e-07
-5.40942e-05
-5.00467e-07
2.28239e-07
5.41118e-05
-1.19493e-07
-3.75389e-07
-9.66969e-08
2.58568e-07
-4.87867e-07
2.25143e-07
-1.47122e-07
-3.42422e-07
-5.14942e-05
5.15998e-05
-5.18575e-05
-9.2866e-07
5.19433e-05
-3.43099e-07
-9.3187e-07
1.35949e-06
-5.44441e-05
5.09254e-06
5.44195e-05
-6.19922e-06
-5.488e-05
-4.33636e-06
5.4785e-05
5.79089e-06
1.3552e-06
5.09882e-06
-6.22173e-06
-4.31633e-06
5.75793e-06
4.15114e-06
-5.25295e-05
5.25423e-05
-5.35012e-05
5.3316e-05
4.14448e-06
-1.33898e-06
-5.46739e-05
-4.28709e-06
5.45487e-05
5.75122e-06
-5.43811e-05
4.96486e-06
-2.2875e-07
5.43208e-05
-6.01474e-06
-1.33633e-06
-4.26448e-06
5.71234e-06
4.97814e-06
-2.26508e-07
-6.049e-06
-4.08227e-06
-5.31294e-05
5.29245e-05
-5.25368e-05
9.05467e-07
5.25139e-05
-4.07712e-06
9.07746e-07
3.64474e-07
-5.41132e-05
-5.21029e-07
5.40977e-05
-5.6683e-08
-5.39167e-05
-1.49186e-07
1.46506e-07
5.39181e-05
3.65709e-07
3.65609e-07
-5.05431e-07
-8.73989e-08
-1.29131e-07
1.48825e-07
3.24191e-07
3.34284e-07
-5.20117e-05
5.20618e-05
-5.16856e-05
1.20669e-07
5.175e-05
3.35144e-07
1.21088e-07
4.60515e-11
-5.38092e-05
-5.40031e-08
5.3818e-05
1.91597e-07
-5.3809e-05
-5.39927e-08
-1.46375e-07
5.38179e-05
1.91544e-07
5.02823e-11
-3.30558e-08
1.51475e-07
-3.30478e-08
-1.48681e-07
1.5142e-07
4.50388e-11
-5.15233e-05
5.15899e-05
-5.1523e-05
-1.20568e-07
5.15896e-05
4.77475e-11
-1.20981e-07
-3.64379e-07
-5.39162e-05
-1.49108e-07
5.39177e-05
3.65635e-07
-5.41126e-05
-5.21041e-07
2.28622e-07
5.40972e-05
-5.65737e-08
-3.65467e-07
-1.29056e-07
3.24106e-07
-5.05452e-07
2.26285e-07
-8.70167e-08
-3.34117e-07
-5.16847e-05
5.17491e-05
-5.20105e-05
-9.05349e-07
5.20607e-05
-3.34969e-07
-9.0763e-07
1.33848e-06
-5.43805e-05
4.96277e-06
5.43202e-05
-6.01232e-06
-5.46734e-05
-4.28513e-06
5.45483e-05
5.74877e-06
1.33581e-06
4.97604e-06
-6.04661e-06
-4.26252e-06
5.70989e-06
4.08027e-06
-5.25356e-05
5.25127e-05
-5.31286e-05
5.29237e-05
4.07512e-06
-1.31585e-06
-5.44026e-05
-4.24243e-06
5.42374e-05
5.72345e-06
-5.42429e-05
4.82318e-06
-2.26755e-07
5.41384e-05
-5.80775e-06
-1.31405e-06
-4.21558e-06
5.67577e-06
4.84177e-06
-2.25673e-07
-5.85229e-06
-4.00703e-06
-5.27133e-05
5.24779e-05
-5.2466e-05
8.83759e-07
5.23984e-05
-4.00431e-06
8.85415e-07
3.5369e-07
-5.40596e-05
-5.5491e-07
5.39997e-05
3.43712e-08
-5.38968e-05
-1.93195e-07
1.41054e-07
5.385e-05
4.52649e-07
3.5552e-07
-5.31411e-07
-1.17432e-08
-1.68457e-07
1.41996e-07
4.03309e-07
3.25527e-07
-5.20892e-05
5.20925e-05
-5.17904e-05
1.17333e-07
5.18054e-05
3.26644e-07
1.17811e-07
4.52996e-11
-5.38033e-05
-9.9922e-08
5.37623e-05
2.81891e-07
-5.38031e-05
-9.99067e-08
-1.40927e-07
5.37621e-05
2.81838e-07
4.60606e-11
-7.54512e-08
2.32168e-07
-7.54418e-08
-1.41865e-07
2.32115e-07
4.46211e-11
-5.16323e-05
5.16496e-05
-5.16319e-05
-1.1723e-07
5.16493e-05
4.47142e-11
-1.1771e-07
-3.53543e-07
-5.38964e-05
-1.93126e-07
5.38496e-05
4.52551e-07
-5.40591e-05
-5.5498e-07
2.26539e-07
5.39992e-05
3.47607e-08
-3.5538e-07
-1.68384e-07
4.0322e-07
-5.3146e-07
2.25459e-07
-1.13115e-08
-3.25354e-07
-5.17895e-05
5.18045e-05
-5.20881e-05
-8.83647e-07
5.20914e-05
-3.26473e-07
-8.85302e-07
1.31537e-06
-5.42424e-05
4.82114e-06
5.41378e-05
-5.80544e-06
-5.44021e-05
-4.24054e-06
5.4237e-05
5.72109e-06
1.31354e-06
4.83971e-06
-5.84994e-06
-4.21366e-06
5.67336e-06
4.00508e-06
-5.24648e-05
5.23972e-05
-5.27124e-05
5.24769e-05
4.00235e-06
-1.29133e-06
-5.40463e-05
-4.20649e-06
5.383e-05
5.71414e-06
-5.40118e-05
4.67206e-06
-2.22246e-07
5.38526e-05
-5.58201e-06
-1.2907e-06
-4.17666e-06
5.65848e-06
4.69794e-06
-2.22422e-07
-5.63962e-06
-3.92658e-06
-5.22292e-05
5.19493e-05
-5.23035e-05
8.6362e-07
5.21854e-05
-3.92801e-06
8.64807e-07
3.41129e-07
-5.3909e-05
-6.06403e-07
5.37843e-05
1.67707e-07
-5.37756e-05
-2.46264e-07
1.38582e-07
5.36694e-05
5.54945e-07
3.43969e-07
-5.74389e-07
9.86962e-08
-2.16664e-07
1.38323e-07
4.96719e-07
3.16417e-07
-5.20651e-05
5.20059e-05
-5.1792e-05
1.13909e-07
5.17483e-05
3.17813e-07
1.14473e-07
4.27069e-11
-5.36943e-05
-1.53676e-07
5.35954e-05
3.91121e-07
-5.36942e-05
-1.53656e-07
-1.38467e-07
5.35952e-05
3.91071e-07
4.31682e-11
-1.24522e-07
3.30792e-07
-1.24502e-07
-1.38209e-07
3.30741e-07
4.24489e-11
-5.16395e-05
5.15997e-05
-5.16392e-05
-1.13808e-07
5.15994e-05
4.31166e-11
-1.14372e-07
-3.40978e-07
-5.37751e-05
-2.46198e-07
5.3669e-05
5.54843e-07
-5.39085e-05
-6.06483e-07
2.22031e-07
5.37838e-05
1.6816e-07
-3.43817e-07
-2.16597e-07
4.96616e-07
-5.74483e-07
2.22208e-07
9.92191e-08
-3.16246e-07
-5.17912e-05
5.17474e-05
-5.2064e-05
-8.63509e-07
5.20047e-05
-3.17643e-07
-8.64698e-07
1.29084e-06
-5.40112e-05
4.67005e-06
5.38521e-05
-5.57973e-06
-5.40458e-05
-4.20462e-06
5.38295e-05
5.71179e-06
1.29023e-06
4.69594e-06
-5.63736e-06
-4.17479e-06
5.65616e-06
3.92467e-06
-5.23023e-05
5.21842e-05
-5.22283e-05
5.19483e-05
3.92611e-06
-1.26547e-06
-5.35827e-05
-4.18086e-06
5.3304e-05
5.72495e-06
-5.36673e-05
4.50825e-06
-2.16717e-07
5.34441e-05
-5.33384e-06
-1.26569e-06
-4.14586e-06
5.65886e-06
4.54204e-06
-2.17306e-07
-5.4051e-06
-3.84276e-06
-5.16499e-05
5.13118e-05
-5.20355e-05
8.44483e-07
5.18565e-05
-3.84647e-06
8.45457e-07
3.29085e-07
-5.36293e-05
-6.64994e-07
5.34378e-05
3.10675e-07
-5.3532e-05
-3.0914e-07
1.35134e-07
5.33581e-05
6.76984e-07
3.31584e-07
-6.29155e-07
2.35348e-07
-2.73843e-07
1.35575e-07
6.0732e-07
3.07224e-07
-5.19135e-05
5.17857e-05
-5.16721e-05
1.10511e-07
5.15596e-05
3.08732e-07