/*--------------------------------*- C++ -*----------------------------------*\
  =========                 |
  \\      /  F ield         | OpenFOAM: The Open Source CFD Toolbox
   \\    /   O peration     | Website:  https://openfoam.org
    \\  /    A nd           | Version:  9
     \\/     M anipulation  |
\*---------------------------------------------------------------------------*/
FoamFile
{
    format      ascii;
    class       volScalarField;
    location    "4.8";
    object      epsilon;
}
// * * * * * * * * * * * * * * * * * * * * * * * * * * * * * * * * * * * * * //

dimensions      [0 2 -3 0 0 0 0];

internalField   nonuniform List<scalar> 
36360
(
12.4579
11.3428
9.96517
9.4491
20.548
19.6128
13.1749
15.3721
9.31761
8.24315
7.63376
6.65726
16.8307
15.3534
12.6315
11.1486
7.77334
7.77336
6.23326
6.23327
14.7181
14.718
10.5559
10.5558
8.2432
9.31773
6.65728
7.63383
15.3533
16.8304
11.1485
12.6312
11.3431
12.4584
9.44929
9.96556
19.6124
20.5476
15.3717
13.1743
14.7116
13.3616
13.8578
12.564
24.9402
23.3474
23.3408
21.8516
11.1452
9.98448
10.401
9.26829
20.2927
18.7205
18.8795
17.3477
9.47884
9.47887
8.77443
8.77445
18.0408
18.0408
16.6857
16.6857
9.98458
11.1454
9.26837
10.4012
18.7205
20.2926
17.3476
18.8794
13.3619
14.7123
12.5643
13.8584
23.3473
24.94
21.8514
23.3404
15.7413
14.3597
15.3005
13.9296
26.9973
25.3247
26.0937
24.4534
12.1094
10.9301
11.6905
10.5169
22.2039
20.6026
21.3597
19.7679
10.4164
10.4165
10.0058
10.0059
19.9091
19.9091
19.0788
19.0788
10.9302
12.1096
10.517
11.6907
20.6026
22.204
19.7679
21.3597
14.3601
15.7421
13.93
15.3012
25.3247
26.9972
24.4533
26.0935
16.3507
14.96
16.08
14.6929
28.31
26.6023
27.7187
26.0247
12.7058
11.5252
12.4396
11.2588
23.4501
21.842
22.8867
21.281
11.0103
11.0103
10.7442
10.7442
21.1461
21.1461
20.5857
20.5857
11.5253
12.7061
11.259
12.4398
21.8421
23.4502
21.281
22.8867
14.9604
16.3515
14.6933
16.0808
26.6024
28.31
26.0247
27.7187
16.743
15.3491
16.5663
15.1737
29.1993
27.4776
28.7945
27.078
13.1009
11.9233
12.9227
11.7434
24.3112
22.7008
23.9186
22.3089
11.4094
11.4094
11.2288
11.2289
22.0058
22.0058
21.6131
21.6132
11.9234
13.1012
11.7435
12.9229
22.7009
24.3113
22.3089
23.9187
15.3496
16.7438
15.1742
16.567
27.4777
29.1994
27.0781
28.7945
17.0018
15.6071
16.8847
15.4903
29.8147
28.0881
29.5335
27.8085
13.368
12.1954
13.2473
12.0722
24.9156
23.3073
24.6392
23.0299
11.6837
11.6838
11.5594
11.5594
22.6148
22.6148
22.3361
22.3362
12.1955
13.3683
12.0724
13.2476
23.3074
24.9158
23.0299
24.6394
15.6076
17.0026
15.4908
16.8854
28.0883
29.8148
27.8087
29.5336
17.1695
15.7756
17.0941
15.6998
30.2371
28.5112
30.045
28.318
13.5472
12.3806
13.4667
12.2972
25.3391
23.7351
25.1461
23.54
11.8716
11.8716
11.7869
11.7869
23.0453
23.0453
22.8489
22.8489
12.3807
13.5475
12.2974
13.467
23.7352
25.3393
23.5401
25.1462
15.7762
17.1704
15.7003
17.0949
28.5116
30.2374
28.3183
30.0453
17.2722
15.88
17.2266
15.8337
30.5187
28.7959
30.3914
28.6669
13.6629
12.5026
13.6117
12.4484
25.6283
24.0302
25.4977
23.8968
11.9965
11.9966
11.9409
11.941
23.3435
23.3435
23.2085
23.2086
12.5028
13.6632
12.4486
13.6121
24.0303
25.6285
23.8969
25.4979
15.8805
17.2731
15.8343
17.2274
28.7962
30.5193
28.6673
30.3918
17.3269
15.9358
17.3038
15.9124
30.694
28.9744
30.6167
28.8954
13.7303
12.5768
13.7018
12.545
25.8145
24.2233
25.7323
24.1378
12.0739
12.0739
12.0405
12.0406
23.5402
23.5402
23.4529
23.4529
12.577
13.7307
12.5452
13.7021
24.2234
25.8146
24.1379
25.7325
15.9364
17.3278
15.9129
17.3047
28.9747
30.6946
28.8956
30.6173
17.3417
15.952
17.3384
15.9479
30.7849
29.0671
30.7483
29.0293
13.7595
12.6133
13.7492
12.5994
25.9183
24.3353
25.8752
24.2882
12.1138
12.1139
12.0982
12.0982
23.6565
23.6566
23.6072
23.6073
12.6136
13.7602
12.5996
13.7496
24.3356
25.9189
24.2884
25.8755
15.9537
17.3434
15.9486
17.339
29.0683
30.7849
29.0296
30.7479
17.3229
15.9359
17.3351
15.9468
30.8012
29.0873
30.7999
29.0838
13.7575
12.6192
13.7619
12.6198
25.9544
24.3813
25.9436
24.3656
12.1235
12.1236
12.1222
12.1223
23.7074
23.7075
23.6892
23.6893
12.6197
13.7587
12.6202
13.763
24.3817
25.9556
24.366
25.9447
15.9382
17.3269
15.9496
17.339
29.0908
30.8056
29.0869
30.803
17.2797
15.895
17.3026
15.917
30.7641
29.0533
30.7883
29.0755
13.7309
12.6008
13.7468
12.6129
25.937
24.3736
25.9513
24.3829
12.1089
12.109
12.1192
12.1193
23.7047
23.7048
23.7116
23.7117
12.6012
13.7319
12.6134
13.748
24.374
25.9379
24.3833
25.9525
15.8971
17.2823
15.919
17.3056
29.0554
30.7663
29.0787
30.7921
17.222
15.8373
17.2522
15.8679
30.6817
28.9749
30.7271
29.0185
13.6848
12.5617
13.7101
12.5838
25.8723
24.3188
25.9095
24.3515
12.0734
12.0735
12.0937
12.0938
23.6553
23.6554
23.6855
23.6856
12.5622
13.6858
12.5842
13.7111
24.3191
25.8733
24.3518
25.9103
15.8395
17.2251
15.8699
17.255
28.9778
30.6853
29.0205
30.7295
17.1429
15.7593
17.1837
15.7994
30.5582
28.8534
30.6235
28.9173
13.6206
12.5047
13.6546
12.5354
25.7672
24.2237
25.8242
24.2759
12.0199
12.0199
12.0489
12.049
23.5655
23.5656
23.6151
23.6152
12.505
13.621
12.5358
13.6554
24.2239
25.7675
24.2762
25.8249
15.7602
17.1441
15.8008
17.1858
28.8535
30.5586
28.9189
30.6257
17.0518
15.6682
17.098
15.715
30.3959
28.6935
30.4806
28.7767
13.5404
12.4316
13.5824
12.4702
25.6253
24.0919
25.7003
24.162
11.9502
11.9503
11.9871
11.9871
23.4392
23.4393
23.5066
23.5067
12.4318
13.5409
12.4704
13.5828
24.0921
25.6257
24.1622
25.7006
15.6693
17.0534
15.7159
17.0993
28.6945
30.3982
28.7773
30.4817
16.9396
15.558
16.9957
15.6131
30.1957
28.4959
30.2984
28.5973
13.4449
12.3436
13.4943
12.3894
25.4489
23.9264
25.5408
24.013
11.8658
11.8658
11.9099
11.9099
23.2792
23.2793
23.3632
23.3632
12.3437
13.4452
12.3896
13.4946
23.9265
25.4491
24.0132
25.5411
15.5601
16.9421
15.615
16.9979
28.4959
30.1965
28.5976
30.3003
16.8188
15.4379
16.8802
15.4989
29.9642
28.2674
30.0831
28.3845
13.3359
12.2417
13.3921
12.2945
25.2404
23.7289
25.3483
23.8315
11.7674
11.7674
11.8184
11.8185
23.0871
23.0872
23.187
23.1871
12.2419
13.3363
12.2947
13.3925
23.7292
25.2409
23.8317
25.3487
15.439
16.8214
15.5009
16.8831
28.2685
29.9653
28.3852
30.0833
16.6789
15.2997
16.7498
15.3699
29.693
28.0001
29.8316
28.1365
13.2118
12.1258
13.2756
12.1856
24.998
23.4997
25.1229
23.6181
11.655
11.6551
11.713
11.7131
22.8633
22.8634
22.9791
22.9792
12.1259
13.2119
12.1857
13.2758
23.4999
24.9982
23.6184
25.1233
15.2983
16.6771
15.3695
16.7506
28.0001
29.6939
28.137
29.8333
16.5235
15.1463
16.6023
15.2241
29.3914
27.7014
29.5458
27.8543
13.0736
11.9959
13.1446
12.0627
24.7231
23.2386
24.8645
23.3731
11.5288
11.5289
11.5938
11.5938
22.6075
22.6076
22.7393
22.7394
11.996
13.074
12.0628
13.1448
23.2388
24.7234
23.3733
24.8647
15.1479
16.525
15.2243
16.6017
27.7022
29.3914
27.8544
29.5457
16.3457
14.974
16.4363
15.0614
29.0435
27.3595
29.2218
27.5333
12.9195
11.8515
12.9983
11.9256
24.4134
22.9445
24.572
23.0956
11.3883
11.3883
11.4604
11.4605
22.3188
22.3189
22.4672
22.4673
11.8515
12.9199
11.9257
12.9987
22.9446
24.4137
23.0957
24.5724
14.9766
16.349
15.0633
16.4379
27.3604
29.0447
27.5344
29.222
16.1543
14.7886
16.2508
14.8825
28.6619
26.9833
28.8558
27.1748
12.7509
11.6924
12.8371
11.7739
24.0694
22.6167
24.2455
22.7848
11.2331
11.233
11.3126
11.3126
21.9963
21.9963
22.1618
22.1618
11.6924
12.7513
11.7739
12.8375
22.6167
24.0698
22.7848
24.2459
14.7895
16.1558
14.8841
16.254
26.9855
28.6639
27.1768
28.8581
15.9445
14.5861
16.0503
14.6884
28.2382
26.5667
28.4542
26.7784
12.5663
11.518
12.6606
11.6072
23.689
22.2538
23.8835
22.4396
11.0629
11.0629
11.1499
11.1498
21.639
21.6389
21.8217
21.8217
11.5178
12.5662
11.6071
12.6606
22.2537
23.6889
22.4395
23.8835
14.5861
15.9438
14.689
16.051
26.5667
28.2371
26.7794
28.4543
15.7097
14.3613
15.8301
14.4758
27.7692
26.108
28.0084
26.342
12.3647
11.3279
12.4677
11.4251
23.2704
21.8538
23.4845
22.0584
10.8779
10.8779
10.9725
10.9724
21.2474
21.2473
21.4477
21.4477
11.3279
12.3651
11.425
12.4678
21.8538
23.2707
22.0583
23.4845
14.3644
15.7137
14.4773
15.8307
26.1102
27.7716
26.3429
28.0083
15.4531
14.1191
15.5822
14.2413
27.2553
25.6037
27.5155
25.8596
12.1453
11.1212
12.257
11.2267
22.8119
21.4158
23.0457
21.6394
10.677
10.677
10.7796
10.7795
20.8185
20.8185
21.0375
21.0375
11.1213
12.1458
11.2267
12.2575
21.4158
22.8121
21.6394
23.0459
14.1211
15.457
14.2441
15.5872
25.6056
27.2587
25.8616
27.5201
15.1804
13.8607
15.3184
13.9912
26.6998
25.0597
26.9827
25.3358
11.9094
10.8982
12.0295
11.0119
22.3148
20.9401
22.5679
21.1826
10.4599
10.4599
10.5706
10.5706
20.3523
20.3523
20.59
20.59
10.8983
11.9098
11.0119
12.0299
20.9401
22.3152
21.1827
22.5683
13.8622
15.1833
13.9931
15.3212
25.062
26.7037
25.3378
26.9843
14.8832
13.581
15.0339
13.7221
26.0995
24.4715
26.4048
24.77
11.6556
10.6584
11.7847
10.7805
21.7782
20.4258
22.0513
20.6877
10.2264
10.2263
10.3453
10.3453
19.8479
19.8479
20.1048
20.1048
10.6582
11.6551
10.7804
11.7847
20.4257
21.7776
20.6877
22.0512
13.5807
14.8834
13.7227
15.0353
24.4699
26.0992
24.7703
26.4074
14.5624
13.282
14.7248
13.4334
25.4485
23.836
25.7788
24.1583
11.3834
10.401
11.5217
10.5319
21.1991
19.872
21.4937
20.1538
9.97585
9.97582
10.1033
10.1033
19.3049
19.3049
19.5812
19.5811
10.4009
11.383
10.5317
11.5211
19.8718
21.1987
20.1536
21.4932
13.2807
14.5617
13.4321
14.7243
23.8353
25.4489
24.1568
25.7781
14.2196
12.9643
14.391
13.1236
24.7524
23.1578
25.104
23.5001
11.0932
10.1263
11.2403
10.2658
20.5793
19.2787
20.8937
19.5801
9.70824
9.70824
9.84426
9.84425
18.7232
18.7232
19.0188
19.0188
10.1263
11.0932
10.2658
11.2402
19.2788
20.5793
19.5801
20.8936
12.9636
14.2193
13.1231
14.3915
23.1579
24.7527
23.4998
25.105
13.8537
12.6253
14.0397
12.797
24.0091
22.435
24.3865
22.8015
10.7841
9.83365
10.9411
9.9823
19.919
18.6462
20.2542
18.9673
9.42323
9.42325
9.56801
9.56802
18.1027
18.1027
18.4177
18.4177
9.83371
10.7842
9.98234
10.9412
18.6463
19.9191
18.9674
20.2543
12.6255
13.8538
12.7967
14.0391
22.4352
24.0093
22.8017
24.3867
13.4573
12.2611
13.6582
12.4453
23.2124
21.6617
23.6163
22.0532
10.4545
9.52257
10.6218
9.68046
19.2164
17.9742
19.5727
18.315
9.12052
9.12054
9.27415
9.27416
17.4437
17.4437
17.7779
17.7779
9.52261
10.4546
9.68051
10.6219
17.9742
19.2165
18.315
19.5728
12.2613
13.4576
12.4455
13.6586
21.6618
23.2124
22.0534
23.6164
13.0348
11.8749
13.2482
12.0697
22.3677
20.8432
22.7948
21.2567
10.1053
9.19345
10.2822
9.36026
18.4736
17.264
18.8496
17.6236
8.80038
8.80039
8.96266
8.96267
16.7474
16.7474
17.1
17.1
9.19348
10.1054
9.3603
10.2823
17.264
18.4736
17.6236
18.8497
11.875
13.0351
12.0699
13.2484
20.8432
22.3677
21.2567
22.7948
12.5904
11.469
12.8144
11.6734
21.4807
19.9852
21.9284
20.4179
9.73809
8.847
9.92385
9.02239
17.6935
16.5175
18.0879
16.8951
8.46327
8.46328
8.63397
8.63398
16.0151
16.0151
16.3856
16.3856
8.84703
9.73815
9.02242
9.92392
16.5175
17.6934
16.8951
18.0879
11.4691
12.5906
11.6736
12.8146
19.9851
21.4806
20.4179
21.9283
12.1264
11.0453
12.3599
11.2585
20.5545
19.0896
21.0215
19.541
9.3536
8.48368
9.54792
8.66748
16.8777
15.7362
17.2897
16.131
8.10945
8.10946
8.2885
8.28851
15.2482
15.2482
15.6359
15.6359
8.48371
9.35365
8.66751
9.54797
15.7361
16.8776
16.131
17.2897
11.0455
12.1266
11.2587
12.3601
19.0895
20.5544
19.5409
21.0215
11.6446
10.6047
11.8869
10.8263
19.5913
18.1583
20.0767
18.6274
8.95214
8.10347
9.15495
8.29575
16.0274
14.9207
16.4566
15.3326
7.73879
7.7388
7.92631
7.92632
14.4473
14.4473
14.8519
14.8519
8.10349
8.95219
8.29577
9.155
14.9207
16.0273
15.3326
16.4565
10.6048
11.6448
10.8265
11.8871
18.1583
19.5912
18.6273
20.0766
11.1458
10.1472
11.3966
10.3774
18.5916
17.1926
19.0953
17.6789
8.53318
7.70559
8.74489
7.90687
15.1428
14.0711
15.5892
14.5002
7.35043
7.35043
7.54696
7.54697
13.6122
13.6122
14.034
14.034
7.70561
8.53322
7.90689
8.74493
14.0711
15.1427
14.5001
15.5892
10.1473
11.146
10.3775
11.3968
17.1925
18.5914
17.6788
19.0952
10.6292
9.67106
10.8892
9.91093
17.5528
16.1919
18.0767
16.6959
8.09448
7.28786
8.31649
7.49945
14.2222
13.1852
14.687
13.6328
6.94229
6.9423
7.14906
7.14906
12.7408
12.7408
13.1811
13.1811
7.28788
8.09452
7.49947
8.31653
13.1852
14.2221
13.6328
14.687
9.67115
10.6294
9.91102
10.8894
16.1918
17.5527
16.6958
18.0766
10.0903
9.16993
10.3623
9.42369
16.4684
15.1523
17.0162
15.6765
7.62977
6.84542
7.86603
7.07022
13.2588
12.2573
13.7465
12.727
6.51057
6.51058
6.72972
6.72972
11.8285
11.8285
12.2901
12.2901
6.84543
7.62979
7.07023
7.86606
12.2572
13.2587
12.727
13.7464
9.17001
10.0904
9.42377
10.3625
15.1522
16.4683
15.6764
17.0161
9.51942
8.61766
9.80877
8.90307
15.334
14.0554
15.9062
14.6138
7.12008
6.36854
7.38267
6.61211
12.2297
11.2741
12.7551
11.7736
6.0505
6.0505
6.2843
6.2843
10.8688
10.8687
11.3547
11.3547
6.36855
7.1201
6.61212
7.38269
11.274
12.2296
11.7736
12.755
8.61772
9.51955
8.90313
9.8089
14.0553
15.3339
14.6137
15.906
8.92566
7.85809
9.22252
8.28952
14.1308
12.6849
14.7536
13.4421
6.51182
5.84742
6.83334
6.11328
11.061
10.2218
11.6698
10.7561
5.56543
5.56543
5.80993
5.80993
9.86711
9.86709
10.3713
10.3713
5.84742
6.51183
6.11329
6.83336
10.2217
11.0609
10.756
11.6697
7.85814
8.92577
8.28958
9.22264
12.6848
14.1307
13.442
14.7534
10.5216
9.72858
9.55679
8.87749
11.0427
10.1012
9.65699
8.92816
8.44178
7.64485
7.61179
6.84322
8.51927
7.59271
7.42908
6.56294
7.26674
7.26683
6.48374
6.48382
7.1675
7.16755
6.1699
6.16994
7.64513
8.44229
6.84346
7.61223
7.59289
8.51962
6.56308
7.42937
9.72939
10.5227
8.87821
9.5578
10.1018
11.0437
8.92867
9.65777
11.7589
10.9292
11.239
10.4182
12.6301
11.5992
11.9899
10.9823
9.60219
8.77767
9.10021
8.2834
9.92228
8.93983
9.33135
8.36617
8.385
8.3851
7.89504
7.89514
8.4882
8.48827
7.92298
7.92304
8.778
9.60276
8.2837
9.10076
8.94006
9.9227
8.36638
9.33175
10.9301
11.7601
10.4191
11.2402
11.5999
12.6312
10.983
11.9909
12.4258
11.5967
12.1395
11.3087
13.4211
12.38
13.0836
12.0449
10.2773
9.45499
9.98367
9.15869
10.6957
9.7065
10.3608
9.37244
9.06254
9.06264
8.76527
8.76537
9.25106
9.25114
8.91767
8.91774
9.45532
10.2779
9.15902
9.98425
9.70674
10.6961
9.37268
10.3612
11.5976
12.427
11.3096
12.1407
12.3807
13.4222
12.0457
13.0847
12.8069
11.9855
12.6406
11.8152
13.8742
12.8354
13.6753
12.6349
10.6842
9.87178
10.5051
9.68753
11.1624
10.1787
10.956
9.96914
9.48359
9.4837
9.29706
9.29717
9.72535
9.72543
9.51447
9.51455
9.87211
10.6848
9.68786
10.5057
10.179
11.1629
9.96939
10.9565
11.9864
12.8081
11.8161
12.6418
12.8361
13.8752
12.6356
13.6763
13.0327
12.2197
12.9334
12.1164
14.1515
13.1177
14.0281
12.9919
10.9378
10.1364
10.8255
10.0188
11.4601
10.4847
11.3273
10.3477
9.7532
9.75331
9.63315
9.63326
10.0349
10.0349
9.8961
9.89618
10.1367
10.9383
10.0191
10.8261
10.4849
11.4606
10.348
11.3277
12.2206
13.0339
12.1173
12.9346
13.1184
14.1526
12.9927
14.0292
13.1652
12.3602
13.1072
12.2985
14.3235
13.295
14.2468
13.2159
11.0963
10.3056
11.0264
10.2306
11.6532
10.6865
11.567
10.5961
9.92726
9.92737
9.84993
9.85004
10.2405
10.2406
10.1483
10.1484
10.3059
11.0969
10.2309
11.027
10.6867
11.6537
10.5964
11.5675
12.361
13.1664
12.2993
13.1083
13.2957
14.3246
13.2166
14.2479
13.2373
12.4391
13.2066
12.4053
14.4263
13.4027
14.381
13.3552
11.1919
10.411
11.1505
10.3649
11.7761
10.8179
11.7218
10.7596
10.0372
10.0373
9.989
9.9891
10.3758
10.3759
10.3156
10.3157
10.4113
11.1924
10.3653
11.1511
10.8182
11.7765
10.7599
11.7223
12.44
13.2384
12.4061
13.2077
13.4034
14.4273
13.3559
14.3821
13.2675
12.4753
13.2559
12.461
14.4804
13.4614
14.4574
13.4364
11.2432
10.4714
11.2221
10.446
11.8491
10.8992
11.8178
10.864
10.1019
10.102
10.0745
10.0746
10.4609
10.461
10.4239
10.4239
10.4717
11.2438
10.4463
11.2227
10.8995
11.8496
10.8643
11.8183
12.4762
13.2686
12.4618
13.257
13.4621
14.4814
13.4371
14.4585
13.2673
12.4803
13.2698
12.4805
14.4986
13.4836
14.4924
13.4756
11.2621
10.4987
11.2561
10.4887
11.885
10.9431
11.8711
10.9253
10.1331
10.1332
10.1212
10.1213
10.5084
10.5085
10.4889
10.4889
10.499
11.2626
10.489
11.2566
10.9433
11.8855
10.9256
11.8715
12.4811
13.2684
12.4813
13.2708
13.4842
14.4996
13.4763
14.4934
13.2437
12.4612
13.2574
12.4728
14.4885
13.477
14.4959
13.4828
11.2561
10.5005
11.2617
10.5025
11.8919
10.9578
11.8917
10.9538
10.1387
10.1388
10.1388
10.1389
10.5267
10.5268
10.5209
10.521
10.5009
11.2567
10.5028
11.2623
10.9581
11.8925
10.9541
11.8922
12.4621
13.245
12.4736
13.2585
13.4781
14.4899
13.4835
14.497
13.2014
12.4229
13.2238
12.4435
14.455
13.4471
14.4734
13.4639
11.2301
10.4822
11.2452
10.4937
11.8755
10.9493
11.8863
10.9562
10.124
10.1241
10.1338
10.1339
10.5219
10.522
10.527
10.5271
10.4826
11.2308
10.4941
11.2459
10.9497
11.8764
10.9566
11.8871
12.424
13.2029
12.4445
13.2252
13.4486
14.4571
13.4654
14.4755
13.144
12.3689
13.1737
12.397
14.4032
13.398
14.4306
13.4242
11.188
10.4475
11.2108
10.4668
11.8401
10.9218
11.8598
10.9378
10.0928
10.0929
10.1104
10.1105
10.4981
10.4982
10.5123
10.5124
10.4479
11.1887
10.4672
11.2115
10.9222
11.8409
10.9382
11.8607
12.3699
13.1454
12.3981
13.1752
13.3996
14.4054
13.4256
14.4323
13.0745
12.3025
13.1095
12.3363
14.3363
13.3344
14.3697
13.3664
11.1329
10.3994
11.1619
10.4251
11.7894
10.8787
11.8163
10.9021
10.048
10.0481
10.072
10.0722
10.4585
10.4586
10.4802
10.4803
10.3997
11.1335
10.4254
11.1625
10.8791
11.7902
10.9025
11.817
12.3035
13.0757
12.3373
13.1109
13.3351
14.3374
13.3677
14.3718
12.9952
12.2253
13.0356
12.2648
14.2598
13.2594
14.2988
13.2978
11.0665
10.3397
11.1011
10.371
11.7262
10.8223
11.7593
10.8522
9.99142
9.99152
10.0212
10.0213
10.4054
10.4055
10.4337
10.4338
10.34
11.0671
10.3713
11.1017
10.8226
11.7267
10.8526
11.76
12.2261
12.9963
12.2657
13.0368
13.2607
14.2614
13.2988
14.2996
12.9048
12.1377
12.9496
12.1815
14.1711
13.1727
14.2154
13.2163
10.9897
10.2695
11.0292
10.3059
11.6506
10.7538
11.6897
10.7896
9.92441
9.92451
9.95926
9.95936
10.3401
10.3402
10.3743
10.3744
10.2698
10.9902
10.3062
11.0297
10.754
11.6511
10.7898
11.6902
12.1384
12.9058
12.1823
12.9507
13.1728
14.1716
13.2171
14.217
12.8067
12.0417
12.8562
12.09
14.0725
13.0752
14.1224
13.1246
10.904
10.1901
10.9479
10.231
11.5645
10.6743
11.6088
10.7155
9.84797
9.84807
9.88743
9.88753
10.2638
10.2639
10.3034
10.3035
10.1904
10.9046
10.2313
10.9484
10.6745
11.5649
10.7157
11.6092
12.0424
12.8078
12.0908
12.8572
13.0764
14.0741
13.1252
14.1228
12.7015
11.9383
12.754
11.9903
13.9634
12.968
14.0178
13.0218
10.8097
10.1017
10.8579
10.1471
11.4679
10.5844
11.5174
10.6307
9.76255
9.76266
9.80647
9.80658
10.177
10.1771
10.2218
10.2219
10.1021
10.8103
10.1474
10.8585
10.5846
11.4683
10.631
11.5178
11.9391
12.7026
11.9912
12.7551
12.968
13.9638
13.0226
14.0196
12.5863
11.8253
12.6446
11.8823
13.8433
12.8493
13.9043
12.9094
10.7065
10.0046
10.7592
10.0543
11.3607
10.484
11.4156
10.5356
9.66824
9.66833
9.71661
9.71671
10.0798
10.0799
10.1298
10.1299
10.0048
10.707
10.0546
10.7597
10.4842
11.361
10.5358
11.416
11.8259
12.5873
11.883
12.6456
12.8503
13.8443
12.9098
13.9042
12.4625
11.7038
12.5246
11.7651
13.7112
12.7201
13.7774
12.7852
10.5942
9.89825
10.6515
9.95264
11.2426
10.3729
11.303
10.4299
9.56487
9.56493
9.6178
9.61787
9.97211
9.97216
10.0274
10.0275
9.89844
10.5945
9.95286
10.6519
10.3731
11.2429
10.4301
11.3032
11.7043
12.4632
11.7657
12.5254
12.7199
13.7112
12.7856
13.7786
12.3267
11.5713
12.3955
11.6382
13.5652
12.5775
13.6393
12.6496
10.4721
9.78249
10.5343
9.84165
11.113
10.2509
11.1792
10.3134
9.45216
9.45219
9.50979
9.50984
9.85355
9.85357
9.91431
9.91434
9.78261
10.4723
9.8418
10.5346
10.251
11.1132
10.3135
11.1794
11.5717
12.3273
11.6386
12.3962
12.5786
13.5668
12.6501
13.6394
12.1806
11.4292
12.254
11.5009
13.4066
12.4238
13.4862
12.5013
10.3399
9.65692
10.4072
9.72102
10.9717
10.1175
11.0438
10.1857
9.32977
9.32979
9.39228
9.39231
9.72384
9.72383
9.79021
9.79021
9.65696
10.34
9.7211
10.4074
10.1175
10.9719
10.1858
11.044
11.4294
12.181
11.5013
12.2545
12.4235
13.4065
12.5018
13.4878
12.021
11.2749
12.102
11.3528
13.2332
12.2562
13.3212
12.3409
10.1971
9.52113
10.2698
9.59039
10.8183
9.97244
10.8965
10.0465
9.19737
9.19737
9.26493
9.26494
9.58267
9.58264
9.65479
9.65477
9.52114
10.1972
9.59041
10.2699
9.97236
10.8183
10.0465
10.8965
11.275
12.0214
11.353
12.1023
12.2569
13.234
12.3411
13.3208
11.8493
11.1096
11.9359
11.1932
13.044
12.0749
13.1403
12.1671
10.0431
9.37467
10.1215
9.44933
10.6519
9.81512
10.7368
9.89544
9.05457
9.05458
9.12738
9.12739
9.42965
9.42964
9.50777
9.50775
9.37471
10.0432
9.44935
10.1216
9.81511
10.652
9.89539
10.7369
11.1098
11.8497
11.1934
11.9363
12.0754
13.045
12.1676
13.1414
11.662
10.9307
11.757
11.0211
12.8368
11.8782
12.9413
11.9774
9.87752
9.21719
9.96173
9.29737
10.4718
9.64505
10.5634
9.73173
8.90102
8.90104
8.97923
8.97925
9.26431
9.26431
9.34861
9.34861
9.21725
9.87769
9.29743
9.96186
9.64508
10.4719
9.73175
10.5636
10.931
11.6626
11.0214
11.7575
11.8791
12.8383
11.9783
12.9427
11.4627
10.741
11.563
10.8368
12.6158
11.6692
12.7268
11.7744
9.70049
9.04859
9.79044
9.13436
10.2787
9.4623
10.3768
9.55534
8.73652
8.73654
8.82023
8.82025
9.08647
9.08647
9.17704
9.17705
9.04865
9.70062
9.13443
9.7906
9.46233
10.2789
9.55538
10.377
10.7413
11.4631
10.8372
11.5636
11.669
12.616
11.7749
12.7282
11.2475
10.5373
11.3566
10.6403
12.3765
11.4438
12.498
11.5577
9.51146
8.86855
9.60746
8.96007
10.0719
9.26648
10.177
9.36612
8.56082
8.56083
8.65016
8.65018
8.89583
8.89581
8.99285
8.99284
8.86858
9.51154
8.96012
9.60756
9.26641
10.0718
9.3661
10.177
10.5375
11.2478
10.6405
11.357
11.4443
12.3773
11.5579
12.4978
11.0186
10.322
11.1338
10.4306
12.1197
11.2041
12.2492
11.3251
9.31041
8.67686
9.41242
8.77423
9.85095
9.05722
9.96313
9.16359
8.3737
8.37371
8.46877
8.46878
8.69211
8.6921
8.79569
8.79567
8.6769
9.31049
8.77426
9.41249
9.05718
9.85088
9.16353
9.96299
10.3221
11.0189
10.4307
11.1341
11.2033
12.1192
11.3249
12.2499
10.7756
10.0934
10.8983
10.2087
11.8465
10.9496
11.9841
11.0778
9.09707
8.4733
9.20527
8.57663
9.61612
8.83445
9.7352
8.94759
8.17493
8.17496
8.27585
8.27587
8.47511
8.47512
8.58535
8.58535
8.47339
9.09723
8.5767
9.20539
8.83449
9.6162
8.94759
9.7352
10.0936
10.776
10.209
10.8986
10.9498
11.8464
11.0773
11.9833
10.5164
9.85053
10.6475
9.97325
11.5557
10.6795
11.7027
10.816
8.87079
8.25755
8.98556
8.36702
9.3666
8.59773
9.49326
8.71793
7.9643
7.96433
8.07117
8.0712
8.24452
8.24455
8.36161
8.36163
8.25766
8.87099
8.36712
8.98574
8.59781
9.36675
8.718
9.49339
9.85085
10.5169
9.97356
10.648
10.6798
11.5561
10.8163
11.7031
10.2406
9.59319
10.3799
9.72308
11.2431
10.3907
11.4013
10.5367
8.63141
8.02951
8.75269
8.1451
9.10127
8.34662
9.23584
8.47402
7.74174
7.74177
7.85456
7.85459
8.00013
8.00015
8.12411
8.12413
8.02962
8.63161
8.14521
8.75288
8.3467
9.10142
8.4741
9.23599
9.59351
10.2411
9.72341
10.3804
10.391
11.2435
10.5369
11.4018
9.95019
9.32271
10.0965
9.45897
10.9112
10.0854
11.0785
10.2393
8.37965
7.78959
8.50699
7.91105
8.82101
8.08152
8.96289
8.21583
7.50754
7.50757
7.62613
7.62616
7.74217
7.74219
7.87288
7.8729
7.78969
8.37984
7.91115
8.50719
8.0816
8.82115
8.2159
8.96303
9.32303
9.95066
9.45929
10.0969
10.0856
10.9116
10.2396
11.0789
9.64728
9.04068
9.79962
9.18256
10.5634
9.76557
10.7384
9.92654
8.11644
7.53835
8.2494
7.6654
8.52696
7.80308
8.67561
7.94398
7.26211
7.26214
7.38626
7.38629
7.47107
7.47109
7.60829
7.60831
7.53845
8.11663
7.6655
8.24959
7.80314
8.52709
7.94405
8.67575
9.04098
9.64773
9.18287
9.80007
9.76581
10.5638
9.92678
10.7388
9.33365
8.74827
9.49114
8.89523
10.2019
9.43284
10.3835
9.60013
7.84251
7.27623
7.98077
7.40869
8.21994
7.51171
8.375
7.65904
7.00571
7.00574
7.13533
7.13536
7.18709
7.18711
7.33074
7.33076
7.27632
7.84269
7.40878
7.98095
7.51177
8.22006
7.65911
8.37513
8.74857
9.33408
8.89553
9.49158
9.43306
10.2022
9.60036
10.3839
9.01073
8.44635
9.17274
8.59799
9.8281
9.088
10.0158
9.26129
7.55821
7.00326
7.70164
7.14116
7.90026
7.20743
8.06166
7.36125
6.73829
6.73832
6.87345
6.87348
6.8901
6.89012
7.0403
7.04032
7.00335
7.55838
7.14125
7.70182
7.20749
7.90038
7.36131
8.06178
8.44663
9.01115
8.59828
9.17316
9.08821
9.82844
9.26151
10.0161
8.67927
8.13512
8.84552
8.29146
9.44286
8.73113
9.63624
8.91051
7.26321
6.71887
7.4121
6.86261
7.56744
6.8895
7.73554
7.0503
6.45916
6.45919
6.60032
6.60034
6.57928
6.5793
6.73656
6.73658
6.71896
7.26337
6.8627
7.41226
6.88955
7.56755
7.05035
7.73565
8.13539
8.67967
8.29174
8.84593
8.73133
9.44318
8.91072
9.63657
8.3387
7.81339
8.5097
7.97526
9.04521
8.36053
9.24509
8.54716
6.95587
6.42136
7.11125
6.57196
7.21939
6.55584
7.39552
6.72487
6.16667
6.1667
6.31478
6.31481
6.25266
6.25267
6.41817
6.41818
6.42144
6.95602
6.57204
7.11141
6.55589
7.21949
6.72493
7.39562
7.81365
8.33908
7.97553
8.51009
8.36072
9.04551
8.54736
9.2454
7.9865
7.47684
8.16377
7.64702
8.63102
7.97021
8.83998
8.16795
6.63157
6.10707
6.79632
6.26668
6.85023
6.2019
7.03806
6.38186
5.85798
5.858
6.0146
6.01462
5.90668
5.9067
6.08241
6.08242
6.10714
6.63171
6.26675
6.79647
6.20194
6.85033
6.38191
7.03815
7.47708
7.98686
7.64726
8.16414
7.97039
8.63129
8.16813
8.84027
7.6214
7.10993
7.80457
7.29878
8.19329
7.53812
8.41458
7.76172
6.27762
5.76968
6.45966
5.94173
6.44322
5.81911
6.65328
6.0148
5.53049
5.53051
5.69662
5.69664
5.53735
5.53736
5.72508
5.72509
5.76975
6.27775
5.9418
6.45979
5.81915
6.44331
6.01484
6.65336
7.11016
7.62173
7.29902
7.80491
7.53828
8.19354
7.76188
8.41485
7.27231
6.62526
7.44158
6.89656
7.75198
6.94569
7.96995
7.28086
5.86344
5.40685
6.08052
5.59069
5.95593
5.40122
6.21322
5.614
5.19071
5.19072
5.36082
5.36084
5.14974
5.14974
5.34457
5.34458
5.40691
5.86355
5.59076
6.08064
5.40125
5.956
5.61403
6.2133
6.62546
7.27263
6.89677
7.4419
6.94583
7.75221
7.28101
7.97019
10.1582
9.55696
9.51931
8.97401
10.2792
9.59709
9.52193
8.91506
8.62108
8.0152
8.02065
7.41445
8.51497
7.82498
7.82716
7.14689
7.71899
7.71912
7.12206
7.12218
7.49123
7.49134
6.82257
6.82267
8.0156
8.62177
7.41482
8.02128
7.82533
8.51559
7.14721
7.82772
9.55796
10.1595
8.97495
9.52051
9.59802
10.2804
8.91592
9.52307
11.0423
10.4401
10.6561
10.0519
11.3026
10.6077
10.8619
10.1686
9.50827
8.90393
9.11444
8.50756
9.51437
8.81517
9.07483
8.37693
8.6075
8.60764
8.21027
8.21041
8.47564
8.47577
8.03857
8.03869
8.90436
9.509
8.50798
9.11516
8.81556
9.51504
8.3773
9.07548
10.4411
11.0436
10.0529
10.6575
10.6087
11.3039
10.1696
10.8631
11.5671
10.9742
11.3383
10.7405
11.887
11.1984
11.634
10.9416
10.0621
9.469
9.81837
9.2192
10.1207
9.42947
9.85536
9.15924
9.17754
9.17769
8.92497
8.92511
9.09309
9.09322
8.82077
8.8209
9.46943
10.0629
9.21963
9.8191
9.42986
10.1214
9.15963
9.85604
10.9752
11.5684
10.7415
11.3396
11.1994
11.8883
10.9426
11.6354
11.8747
11.2927
11.7407
11.1534
12.2247
11.5461
12.0776
11.394
10.4026
9.82271
10.2529
9.66652
10.4894
9.81034
10.3273
9.64218
9.53747
9.53761
9.37819
9.37833
9.47951
9.47964
9.30853
9.30866
9.82313
10.4033
9.66695
10.2536
9.81073
10.4901
9.64257
10.328
11.2937
11.876
11.1544
11.742
11.547
12.226
11.395
12.0789
12.052
11.4802
11.9752
11.3986
12.4211
11.7523
12.3355
11.662
10.6104
10.0432
10.5194
9.94614
10.7161
10.0493
10.6163
9.94368
9.76398
9.76412
9.664
9.66413
9.72419
9.72432
9.6158
9.61592
10.0436
10.6111
9.94655
10.5201
10.0497
10.7167
9.94407
10.617
11.4812
12.0533
11.3996
11.9765
11.7533
12.4224
11.663
12.3367
12.1481
11.5852
12.1073
11.5403
12.5314
11.8713
12.4839
11.8198
10.7336
10.1777
10.6804
10.1192
10.8536
10.1982
10.7936
10.1328
9.90395
9.90408
9.84278
9.84291
9.87841
9.87853
9.81049
9.81061
10.1781
10.7343
10.1196
10.6811
10.1985
10.8543
10.1332
10.7943
11.5861
12.1493
11.5413
12.1086
11.8722
12.5326
11.8207
12.4851
12.1911
11.6359
12.1743
11.6155
12.5858
11.9332
12.5635
11.9075
10.8004
10.2546
10.7727
10.2222
10.9322
10.2869
10.8989
10.2488
9.98567
9.9858
9.95092
9.95105
9.97198
9.9721
9.93156
9.93168
10.255
10.801
10.2226
10.7734
10.2873
10.9328
10.2492
10.8995
11.6368
12.1923
11.6165
12.1755
11.9341
12.5869
11.9084
12.5647
12.1979
11.6492
12.1976
11.6459
12.6018
11.9558
12.597
11.948
10.8279
10.2912
10.8182
10.2772
10.9696
10.3335
10.9551
10.3147
10.0266
10.0267
10.0105
10.0106
10.023
10.0231
10.0021
10.0022
10.2915
10.8285
10.2776
10.8188
10.3339
10.9702
10.3151
10.9557
11.6501
12.1991
11.6468
12.1988
11.9566
12.603
11.9489
12.5982
12.1791
11.6358
12.1906
11.6448
12.5905
11.9499
12.5983
11.9553
10.8272
10.2985
10.8305
10.298
10.9771
10.3494
10.9765
10.3448
10.0378
10.0379
10.0355
10.0356
10.0428
10.0429
10.0364
10.0365
10.2988
10.8278
10.2984
10.8311
10.3497
10.9777
10.3452
10.9771
11.6367
12.1802
11.6457
12.1918
11.9508
12.5916
11.9561
12.5995
12.1409
11.6022
12.1615
11.6207
12.5583
11.9224
12.576
11.938
10.8051
10.2838
10.8185
10.2937
10.9619
10.3419
10.972
10.3483
10.0267
10.0268
10.0348
10.0349
10.0391
10.0392
10.0436
10.0437
10.2841
10.8057
10.294
10.8191
10.3423
10.9625
10.3486
10.9726
11.6031
12.142
11.6215
12.1626
11.9233
12.5595
11.9388
12.5771
12.0877
11.553
12.1153
11.5788
12.5098
11.878
12.5352
11.9015
10.7664
10.2518
10.7876
10.2698
10.9289
10.316
10.9473
10.3311
9.99796
9.99808
10.0144
10.0145
10.0166
10.0168
10.03
10.0302
10.2522
10.767
10.2701
10.7882
10.3164
10.9295
10.3315
10.948
11.5539
12.0888
11.5797
12.1164
11.8789
12.511
11.9024
12.5364
12.0226
11.4912
12.0559
11.523
12.4482
11.8198
12.4798
11.8499
10.7144
10.2061
10.7419
10.2306
10.8814
10.2753
10.9067
10.2974
9.95526
9.95537
9.97829
9.9784
9.97921
9.97932
9.99973
9.99984
10.2064
10.715
10.2309
10.7425
10.2757
10.882
10.2978
10.9073
11.4921
12.0236
11.5239
12.057
11.8207
12.4494
11.8508
12.481
11.9477
11.4193
11.9857
11.456
12.376
11.7505
12.4126
11.7859
10.6515
10.149
10.6842
10.1789
10.8221
10.2224
10.8531
10.2504
9.901
9.90111
9.92955
9.92967
9.92939
9.92951
9.95583
9.95594
10.1493
10.6521
10.1792
10.6848
10.2228
10.8227
10.2507
10.8537
11.4201
11.9488
11.4568
11.9867
11.7515
12.3772
11.7868
12.4137
11.8643
11.3384
11.9065
11.3794
12.2945
11.6716
12.3357
11.7117
10.5791
10.0821
10.6164
10.1167
10.7527
10.1591
10.7886
10.1921
9.83685
9.83697
9.87018
9.87029
9.86895
9.86906
9.90052
9.90063
10.0824
10.5797
10.1171
10.617
10.1594
10.7533
10.1924
10.7892
11.3392
11.8654
11.3802
11.9075
11.6725
12.2956
11.7126
12.3369
11.7731
11.2494
11.8191
11.2944
12.204
11.5833
12.2497
11.6281
10.4983
10.0066
10.5397
10.0454
10.6739
10.0862
10.7143
10.1238
9.76395
9.76407
9.80154
9.80165
9.79903
9.79914
9.83521
9.83532
10.0069
10.4989
10.0458
10.5403
10.0866
10.6745
10.1242
10.7149
11.2503
11.7742