/*--------------------------------*- C++ -*----------------------------------*\
  =========                 |
  \\      /  F ield         | OpenFOAM: The Open Source CFD Toolbox
   \\    /   O peration     | Website:  https://openfoam.org
    \\  /    A nd           | Version:  9
     \\/     M anipulation  |
\*---------------------------------------------------------------------------*/
FoamFile
{
    format      ascii;
    class       volScalarField;
    location    "4.8";
    object      p;
}
// * * * * * * * * * * * * * * * * * * * * * * * * * * * * * * * * * * * * * //

dimensions      [0 2 -2 0 0 0 0];

internalField   nonuniform List<scalar> 
36360
(
20.2422
19.9931
20.2332
20.0048
19.9909
20.1864
20.0143
20.1533
20.0807
20.0985
20.0869
20.1059
20.1115
20.0954
20.0992
20.0917
20.1005
20.1005
20.1082
20.1082
20.0936
20.0936
20.0913
20.0913
20.0985
20.0807
20.1059
20.0869
20.0954
20.1115
20.0917
20.0992
19.9931
20.2422
20.0048
20.2331
20.1864
19.9909
20.1533
20.0143
20.1154
20.0681
20.1613
20.0454
19.8929
20.2568
19.9391
20.2301
20.112
20.103
20.0984
20.0995
20.147
20.1041
20.1307
20.0998
20.0972
20.0972
20.0977
20.0977
20.0954
20.0954
20.0948
20.0948
20.103
20.112
20.0995
20.0984
20.1041
20.147
20.0998
20.1307
20.0681
20.1154
20.0454
20.1613
20.2568
19.8929
20.2301
19.9391
20.065
20.0826
20.0865
20.0783
19.8349
20.2798
19.8595
20.2718
20.1333
20.1137
20.1239
20.1082
20.1715
20.1152
20.1606
20.1094
20.1004
20.1004
20.0984
20.0984
20.0991
20.0991
20.0969
20.0969
20.1137
20.1333
20.1082
20.1239
20.1152
20.1715
20.1094
20.1606
20.0826
20.065
20.0783
20.0865
20.2798
19.8349
20.2718
19.8595
20.0364
20.0833
20.0488
20.0838
19.8022
20.285
19.8164
20.2836
20.1455
20.1238
20.1404
20.119
20.1856
20.1261
20.1796
20.1208
20.1063
20.1063
20.1032
20.1032
20.1048
20.1048
20.1018
20.1018
20.1238
20.1455
20.119
20.1403
20.1261
20.1856
20.1209
20.1797
20.0833
20.0364
20.0838
20.0488
20.285
19.8022
20.2836
19.8164
20.0189
20.0802
20.0267
20.0819
19.7824
20.2843
19.7911
20.285
20.1518
20.1318
20.1492
20.1281
20.1927
20.1348
20.1897
20.1308
20.1127
20.1127
20.1095
20.1095
20.1111
20.1111
20.108
20.108
20.1318
20.1518
20.1281
20.1492
20.1348
20.1927
20.1308
20.1897
20.0802
20.0189
20.0819
20.0267
20.2843
19.7824
20.285
19.7911
20.0075
20.0764
20.0127
20.0783
19.7696
20.2819
19.7754
20.2832
20.1547
20.1376
20.1536
20.135
20.1963
20.1409
20.1948
20.1381
20.1185
20.1185
20.1157
20.1157
20.117
20.117
20.1141
20.1141
20.1376
20.1548
20.135
20.1536
20.1409
20.1963
20.1381
20.1948
20.0764
20.0075
20.0783
20.0126
20.2819
19.7696
20.2832
19.7754
19.9995
20.0729
20.0032
20.0746
19.7611
20.2792
19.7649
20.2805
20.156
20.1416
20.1555
20.1398
20.198
20.1452
20.1973
20.1433
20.1232
20.1232
20.121
20.121
20.1218
20.1218
20.1195
20.1195
20.1416
20.156
20.1398
20.1555
20.1452
20.198
20.1433
20.1973
20.0729
19.9995
20.0746
20.0032
20.2792
19.761
20.2806
19.7648
19.9938
20.0699
19.9964
20.0713
19.7543
20.2769
19.7574
20.278
20.1563
20.1443
20.1562
20.1431
20.1988
20.148
20.1985
20.1467
20.1267
20.1267
20.1251
20.1251
20.1255
20.1255
20.1238
20.1238
20.1443
20.1563
20.1431
20.1562
20.148
20.1988
20.1467
20.1985
20.0699
19.9938
20.0713
19.9964
20.2769
19.7542
20.2779
19.7575
19.9893
20.0671
19.9914
20.0684
19.7509
20.274
19.7527
20.2753
20.1559
20.1458
20.1561
20.1451
20.1987
20.1497
20.1988
20.1489
20.1291
20.1291
20.1281
20.1281
20.1281
20.1281
20.127
20.127
20.1458
20.1558
20.1452
20.1561
20.1497
20.1987
20.149
20.1988
20.0671
19.9893
20.0684
19.9914
20.274
19.7508
20.2755
19.7523
19.9858
20.0649
19.9875
20.0659
19.7471
20.272
19.7488
20.2731
20.1551
20.1466
20.1556
20.1463
20.1983
20.1506
20.1986
20.1503
20.1306
20.1306
20.13
20.13
20.1299
20.1299
20.1291
20.1291
20.1465
20.1551
20.1463
20.1555
20.1506
20.1983
20.1502
20.1986
20.0648
19.9859
20.0659
19.9875
20.2721
19.7468
20.273
19.7488
19.9828
20.0627
19.9843
20.0638
19.7448
20.2697
19.7456
20.2709
20.154
20.1466
20.1546
20.1467
20.1975
20.1508
20.198
20.1508
20.1312
20.1312
20.131
20.131
20.1307
20.1307
20.1304
20.1304
20.1465
20.154
20.1466
20.1546
20.1508
20.1974
20.1508
20.198
20.0626
19.9829
20.0637
19.9843
20.2695
19.7451
20.271
19.7456
19.9803
20.0606
19.9815
20.0617
19.7435
20.2673
19.7442
20.2685
20.1525
20.146
20.1533
20.1463
20.1961
20.1503
20.1968
20.1506
20.1311
20.1311
20.1313
20.1312
20.1308
20.1308
20.1308
20.1308
20.146
20.1525
20.1463
20.1533
20.1504
20.1962
20.1506
20.1967
20.0606
19.9803
20.0616
19.9815
20.2674
19.743
20.2683
19.7443
19.978
20.0584
19.9791
20.0595
19.7427
20.2647
19.7433
20.2659
20.1508
20.1448
20.1517
20.1455
20.1944
20.1493
20.1953
20.1499
20.1303
20.1303
20.1308
20.1308
20.1302
20.1303
20.1306
20.1306
20.1448
20.1508
20.1455
20.1517
20.1493
20.1945
20.1499
20.1954
20.0585
19.978
20.0595
19.9791
20.2649
19.7416
20.2662
19.7422
19.9759
20.0563
19.9769
20.0573
19.7411
20.2621
19.742
20.2634
20.1488
20.1432
20.1498
20.1441
20.1924
20.1478
20.1934
20.1486
20.129
20.129
20.1297
20.1297
20.1291
20.1291
20.1297
20.1298
20.1432
20.1487
20.1441
20.1498
20.1478
20.1924
20.1486
20.1935
20.0562
19.9758
20.0574
19.9769
20.262
19.7408
20.2635
19.7411
19.9734
20.0541
19.9746
20.0552
19.7391
20.2595
19.74
20.2609
20.1465
20.1412
20.1477
20.1422
20.1901
20.1458
20.1913
20.1469
20.1271
20.1271
20.1281
20.1281
20.1274
20.1274
20.1283
20.1283
20.1412
20.1466
20.1422
20.1477
20.1459
20.1902
20.1469
20.1913
20.0542
19.9733
20.0552
19.9745
20.2597
19.7383
20.2608
19.7397
19.971
20.0518
19.9723
20.053
19.7378
20.2563
19.7384
20.2579
20.144
20.1387
20.1453
20.14
20.1873
20.1433
20.1887
20.1446
20.1247
20.1247
20.126
20.126
20.1251
20.1251
20.1263
20.1263
20.1387
20.1439
20.14
20.1453
20.1434
20.1873
20.1447
20.1888
20.0516
19.9709
20.053
19.9721
20.2563
19.7377
20.2581
19.7378
19.9686
20.049
19.9697
20.0504
19.7366
20.2528
19.7373
20.2545
20.141
20.1357
20.1425
20.1372
20.1841
20.1404
20.1857
20.1419
20.1219
20.1219
20.1234
20.1234
20.1223
20.1223
20.1238
20.1238
20.1357
20.141
20.1372
20.1425
20.1404
20.1841
20.1419
20.1857
20.049
19.9685
20.0503
19.9696
20.2528
19.7364
20.2544
19.7373
19.9659
20.0463
19.9672
20.0477
19.7353
20.249
19.736
20.2509
20.1378
20.1324
20.1394
20.1341
20.1804
20.1368
20.1823
20.1387
20.1186
20.1186
20.1203
20.1203
20.1189
20.1189
20.1207
20.1207
20.1324
20.1378
20.1341
20.1394
20.1368
20.1804
20.1386
20.1823
20.0463
19.9661
20.0477
19.9673
20.249
19.7353
20.2509
19.736
19.9632
20.0436
19.9646
20.045
19.7336
20.2448
19.7341
20.2471
20.1344
20.1287
20.1362
20.1306
20.1763
20.1329
20.1785
20.135
20.115
20.115
20.1168
20.1168
20.1151
20.1151
20.1171
20.1171
20.1287
20.1345
20.1306
20.1362
20.133
20.1765
20.135
20.1785
20.0435
19.9631
20.0449
19.9646
20.245
19.7332
20.2471
19.7342
19.9605
20.0404
19.9618
20.042
19.7327
20.2401
19.7332
20.2425
20.1308
20.1247
20.1326
20.1267
20.1718
20.1286
20.1741
20.1308
20.111
20.111
20.113
20.113
20.1108
20.1108
20.113
20.113
20.1248
20.1309
20.1268
20.1327
20.1286
20.172
20.1309
20.1743
20.0406
19.9603
20.0421
19.9618
20.2404
19.7318
20.2429
19.7324
19.9574
20.0376
19.959
20.039
19.7303
20.2357
19.7316
20.2379
20.1273
20.1206
20.129
20.1227
20.1672
20.1239
20.1695
20.1263
20.1068
20.1068
20.109
20.109
20.1061
20.1061
20.1085
20.1085
20.1206
20.1272
20.1227
20.1291
20.1238
20.167
20.1263
20.1696
20.0375
19.9575
20.0391
19.9589
20.2355
19.7307
20.2381
19.731
19.9546
20.0344
19.9559
20.0361
19.7293
20.2306
19.7295
20.2333
20.1235
20.1163
20.1254
20.1185
20.162
20.1188
20.1647
20.1214
20.1025
20.1025
20.1047
20.1047
20.101
20.101
20.1036
20.1036
20.1163
20.1234
20.1184
20.1253
20.1187
20.1619
20.1213
20.1644
20.0343
19.9547
20.0359
19.956
20.2305
19.7295
20.2328
19.7306
19.9521
20.0312
19.9534
20.0327
19.7288
20.2249
19.7295
20.2276
20.1196
20.1115
20.1215
20.1139
20.1565
20.1134
20.1592
20.1161
20.0979
20.0979
20.1002
20.1002
20.0958
20.0958
20.0984
20.0984
20.1116
20.1197
20.1139
20.1216
20.1135
20.1567
20.1161
20.1593
20.0314
19.9518
20.0329
19.9532
20.2253
19.7276
20.2281
19.7283
19.9492
20.0288
19.9506
20.03
19.7256
20.2203
19.7274
20.2225
20.1162
20.1071
20.1179
20.1093
20.1513
20.1081
20.1539
20.1107
20.0934
20.0934
20.0957
20.0957
20.0904
20.0904
20.0931
20.0931
20.1071
20.1161
20.1093
20.1179
20.1081
20.1513
20.1108
20.154
20.0285
19.9495
20.0299
19.9507
20.2201
19.7259
20.2228
19.7266
19.9469
20.0262
19.9479
20.0275
19.7245
20.2149
19.725
20.2176
20.1129
20.1028
20.1145
20.105
20.1459
20.1026
20.1486
20.1053
20.0891
20.0891
20.0912
20.0912
20.085
20.085
20.0877
20.0877
20.1029
20.1129
20.105
20.1145
20.1026
20.146
20.1053
20.1486
20.0263
19.9468
20.0274
19.948
20.2153
19.7238
20.2175
19.7251
19.9452
20.0239
19.946
20.025
19.7236
20.2098
19.7239
20.2124
20.1099
20.0988
20.1113
20.1008
20.1406
20.0972
20.1433
20.0999
20.085
20.085
20.087
20.087
20.0796
20.0796
20.0823
20.0823
20.0988
20.1099
20.1008
20.1114
20.0972
20.1406
20.0999
20.1433
20.0239
19.9452
20.0251
19.9459
20.2097
19.7243
20.2125
19.7239
19.9437
20.0225
19.9444
20.0231
19.7233
20.205
19.7234
20.2074
20.1065
20.0951
20.1083
20.0969
20.1354
20.0919
20.138
20.0945
20.0813
20.0813
20.0831
20.0831
20.0744
20.0744
20.077
20.077
20.0951
20.1065
20.0969
20.1083
20.092
20.1354
20.0945
20.138
20.0223
19.9438
20.023
19.9444
20.205
19.7236
20.2073
19.724
19.9431
20.0214
19.9432
20.0219
19.7238
20.2007
19.7233
20.2028
20.1037
20.092
20.105
20.0935
20.1306
20.0871
20.1329
20.0895
20.0781
20.0781
20.0796
20.0796
20.0697
20.0697
20.072
20.072
20.092
20.1036
20.0935
20.105
20.0871
20.1306
20.0895
20.133
20.0214
19.943
20.0218
19.9433
20.2007
19.7237
20.2029
19.7234
19.9434
20.021
19.9431
20.0211
19.7249
20.1968
19.7242
20.1987
20.1015
20.0894
20.1025
20.0906
20.1262
20.0827
20.1283
20.0848
20.0756
20.0756
20.0767
20.0767
20.0655
20.0655
20.0675
20.0675
20.0894
20.1015
20.0906
20.1025
20.0827
20.1262
20.0848
20.1283
20.021
19.9434
20.0211
19.9431
20.1968
19.7249
20.1987
19.7241
19.9445
20.0216
19.9438
20.0212
19.7272
20.1935
19.7259
20.1951
20.1002
20.0876
20.1008
20.0884
20.1224
20.0789
20.1242
20.0807
20.0738
20.0738
20.0746
20.0746
20.0619
20.0619
20.0636
20.0636
20.0876
20.1002
20.0884
20.1008
20.0789
20.1224
20.0807
20.1242
20.0216
19.9445
20.0212
19.9438
20.1935
19.7272
20.1951
19.7259
19.9468
20.0231
19.9455
20.0223
19.7308
20.1909
19.7288
20.1921
20.0998
20.0866
20.0999
20.087
20.1193
20.0759
20.1208
20.0773
20.0729
20.0729
20.0733
20.0733
20.0593
20.0593
20.0605
20.0605
20.0866
20.0997
20.087
20.0999
20.0759
20.1193
20.0773
20.1208
20.0231
19.9468
20.0223
19.9455
20.1909
19.7308
20.1921
19.7288
19.9502
20.0257
19.9483
20.0243
19.7357
20.1891
19.7331
20.1899
20.1001
20.0865
20.0998
20.0864
20.117
20.0738
20.1181
20.0747
20.0731
20.0731
20.0729
20.0729
20.0576
20.0576
20.0583
20.0583
20.0865
20.1001
20.0864
20.0998
20.0738
20.117
20.0747
20.1181
20.0257
19.9502
20.0243
19.9483
20.1891
19.7357
20.1899
19.7331
19.9549
20.0291
19.9523
20.0273
19.7423
20.1881
19.7388
20.1885
20.1013
20.0873
20.1006
20.0868
20.1155
20.0727
20.1161
20.0731
20.0744
20.0744
20.0736
20.0736
20.0572
20.0572
20.0572
20.0572
20.0873
20.1013
20.0868
20.1006
20.0727
20.1155
20.0731
20.1161
20.0291
19.9549
20.0273
19.9523
20.1881
19.7423
20.1885
19.7388
19.961
20.0334
19.9578
20.0312
19.7506
20.188
19.7462
20.188
20.1033
20.0892
20.1022
20.0882
20.1148
20.0727
20.115
20.0726
20.0768
20.0768
20.0754
20.0754
20.058
20.058
20.0574
20.0574
20.0892
20.1033
20.0881
20.1022
20.0727
20.1148
20.0726
20.115
20.0334
19.961
20.0312
19.9578
20.188
19.7506
20.188
19.7462
19.9687
20.0386
19.9647
20.0359
19.761
20.1886
19.7556
20.1882
20.106
20.092
20.1045
20.0905
20.115
20.0739
20.1148
20.0732
20.0804
20.0804
20.0784
20.0784
20.0602
20.0602
20.0589
20.0589
20.092
20.106
20.0905
20.1045
20.0739
20.115
20.0732
20.1148
20.0386
19.9687
20.0359
19.9647
20.1886
19.7611
20.1882
19.7556
19.978
20.0443
19.9731
20.0414
19.7739
20.1896
19.7671
20.1891
20.1093
20.0958
20.1076
20.0938
20.1159
20.0764
20.1154
20.075
20.0851
20.0851
20.0826
20.0826
20.0638
20.0638
20.0618
20.0618
20.0958
20.1093
20.0938
20.1076
20.0764
20.1159
20.075
20.1154
20.0443
19.978
20.0414
19.9732
20.1896
19.7739
20.1891
19.7672
19.9886
20.0506
19.9831
20.0474
19.7899
20.1905
19.7815
20.1901
20.113
20.1005
20.1111
20.0981
20.1174
20.08
20.1166
20.078
20.091
20.091
20.0879
20.0879
20.0689
20.0689
20.0661
20.0661
20.1005
20.113
20.0981
20.1111
20.08
20.1174
20.078
20.1166
20.0507
19.9886
20.0474
19.9831
20.1905
19.7899
20.1902
19.7815
19.9983
20.0595
19.994
20.0546
19.8103
20.1898
19.7995
20.1905
20.1172
20.1063
20.115
20.1033
20.1192
20.0851
20.1182
20.0824
20.0981
20.0981
20.0944
20.0944
20.0754
20.0754
20.0719
20.0719
20.1063
20.1172
20.1033
20.115
20.0851
20.1192
20.0824
20.1182
20.0596
19.9983
20.0546
19.994
20.1898
19.8103
20.1905
19.7995
20.0065
20.0695
20.0005
20.0665
19.8359
20.1852
19.8223
20.1883
20.1232
20.1134
20.12
20.1096
20.122
20.0916
20.1204
20.0881
20.1063
20.1063
20.102
20.102
20.0834
20.0834
20.0792
20.0792
20.1134
20.1232
20.1096
20.12
20.0916
20.122
20.0881
20.1204
20.0695
20.0065
20.0665
20.0005
20.1852
19.8359
20.1883
19.8223
20.4317
19.9422
20.3329
19.9761
20.3846
19.9281
20.3101
19.9644
19.9886
20.0602
20.0269
20.0799
20.0179
20.079
20.045
20.0912
20.0937
20.0937
20.1019
20.1019
20.0988
20.0988
20.1036
20.1036
20.0602
19.9886
20.0799
20.0269
20.079
20.0179
20.0912
20.045
19.9422
20.4316
19.9761
20.3329
19.9281
20.3846
19.9644
20.3101
20.2914
20.0365
20.3366
20.0136
20.2538
20.0121
20.298
19.9904
20.0306
20.0641
20.0155
20.062
20.0546
20.0831
20.0407
20.0806
20.0844
20.0844
20.0882
20.0882
20.0937
20.0937
20.0957
20.0957
20.0641
20.0306
20.062
20.0155
20.0831
20.0546
20.0806
20.0407
20.0365
20.2914
20.0136
20.3366
20.0121
20.2538
19.9904
20.298
20.2536
20.0415
20.269
20.0417
20.2119
20.0196
20.2295
20.0185
20.0478
20.0735
20.0409
20.0687
20.0731
20.0936
20.0651
20.0881
20.0863
20.0863
20.0844
20.0844
20.096
20.096
20.0942
20.0941
20.0735
20.0477
20.0687
20.0409
20.0936
20.0731
20.0881
20.0651
20.0415
20.2536
20.0417
20.269
20.0196
20.2119
20.0185
20.2295
20.2336
20.0366
20.2423
20.0393
20.1886
20.0163
20.1987
20.0184
20.0549
20.0819
20.0522
20.0779
20.0825
20.1033
20.0787
20.0988
20.0924
20.0924
20.0891
20.0891
20.1019
20.1019
20.0988
20.0988
20.0819
20.0549
20.0779
20.0522
20.1033
20.0825
20.0987
20.0787
20.0366
20.2336
20.0393
20.2423
20.0163
20.1886
20.0184
20.1987
20.2213
20.0309
20.2268
20.0337
20.1744
20.0114
20.1807
20.0137
20.0575
20.088
20.0566
20.0852
20.0864
20.1105
20.085
20.1072
20.099
20.099
20.0958
20.0958
20.1084
20.1084
20.1052
20.1052
20.088
20.0575
20.0852
20.0566
20.1105
20.0864
20.1072
20.085
20.0309
20.2213
20.0337
20.2268
20.0114
20.1744
20.0137
20.1807
20.2131
20.0258
20.2169
20.0282
20.165
20.0068
20.1693
20.009
20.0581
20.0923
20.0579
20.0904
20.0875
20.1157
20.0871
20.1133
20.1047
20.1047
20.102
20.102
20.1142
20.1142
20.1115
20.1115
20.0923
20.0581
20.0904
20.0579
20.1157
20.0875
20.1133
20.0871
20.0258
20.2131
20.0282
20.2168
20.0068
20.165
20.009
20.1693
20.2071
20.0215
20.2099
20.0235
20.1583
20.0028
20.1614
20.0047
20.0578
20.0952
20.058
20.0939
20.0875
20.1192
20.0876
20.1176
20.1091
20.1091
20.107
20.107
20.1189
20.1189
20.1167
20.1167
20.0952
20.0578
20.0939
20.058
20.1192
20.0875
20.1176
20.0876
20.0215
20.207
20.0235
20.2098
20.0028
20.1582
20.0047
20.1614
20.2024
20.0178
20.2046
20.0195
20.1533
19.9993
20.1556
20.001
20.057
20.097
20.0575
20.0962
20.087
20.1215
20.0873
20.1205
20.1122
20.1122
20.1108
20.1108
20.1223
20.1223
20.1207
20.1207
20.097
20.0571
20.0962
20.0575
20.1215
20.087
20.1205
20.0874
20.0178
20.2024
20.0196
20.2046
19.9993
20.1533
20.001
20.1556
20.1987
20.0145
20.2005
20.0161
20.1493
19.9963
20.1511
19.9978
20.056
20.0979
20.0566
20.0975
20.0862
20.1228
20.0866
20.1223
20.1142
20.1142
20.1133
20.1133
20.1246
20.1246
20.1236
20.1235
20.0979
20.056
20.0975
20.0565
20.1228
20.0861
20.1223
20.0866
20.0145
20.1987
20.0161
20.2005
19.9962
20.1494
19.9977
20.1513
20.1956
20.0116
20.1971
20.013
20.1461
19.9935
20.1477
19.9948
20.0547
20.0981
20.0554
20.0981
20.0851
20.1234
20.0856
20.1232
20.1152
20.1152
20.1148
20.1148
20.1259
20.1259
20.1253
20.1253
20.0981
20.0547
20.0981
20.0554
20.1234
20.085
20.1232
20.0856
20.0116
20.1956
20.013
20.1971
19.9934
20.1463
19.9948
20.1478
20.1927
20.0089
20.1941
20.0102
20.1433
19.991
20.1447
19.9922
20.0532
20.0978
20.054
20.098
20.0837
20.1233
20.0844
20.1234
20.1155
20.1155
20.1155
20.1155
20.1263
20.1263
20.1262
20.1262
20.0978
20.0532
20.098
20.054
20.1232
20.0837
20.1234
20.0844
20.0088
20.1927
20.0102
20.1942
19.991
20.1434
19.9921
20.1449
20.1899
20.0063
20.1913
20.0075
20.1407
19.9886
20.1419
19.9898
20.0516
20.0969
20.0524
20.0974
20.0821
20.1226
20.083
20.123
20.1151
20.1151
20.1154
20.1154
20.126
20.126
20.1263
20.1263
20.0969
20.0515
20.0974
20.0524
20.1225
20.0821
20.123
20.0829
20.0062
20.19
20.0075
20.1914
19.9885
20.1409
19.9898
20.142
20.1874
20.0036
20.1887
20.0049
20.1385
19.986
20.1396
19.9873
20.0497
20.0956
20.0506
20.0963
20.0803
20.1213
20.0812
20.122
20.1141
20.1141
20.1147
20.1147
20.1251
20.1251
20.1257
20.1257
20.0956
20.0496
20.0963
20.0506
20.1213
20.0803
20.122
20.0812
20.0035
20.1875
20.0049
20.1888
19.9861
20.1386
19.9872
20.1398
20.1847
20.0011
20.186
20.0023
20.1361
19.9837
20.1373
19.9848
20.0476
20.094
20.0487
20.0949
20.0783
20.1197
20.0793
20.1206
20.1127
20.1127
20.1135
20.1135
20.1237
20.1237
20.1245
20.1245
20.094
20.0476
20.0948
20.0486
20.1197
20.0781
20.1206
20.0792
20.001
20.1848
20.0023
20.1861
19.9834
20.1363
19.9847
20.1374
20.1826
19.9981
20.1838
19.9995
20.1339
19.9809
20.1351
19.9822
20.0452
20.092
20.0464
20.093
20.0759
20.1177
20.0771
20.1187
20.1108
20.1108
20.1118
20.1118
20.1218
20.1218
20.1228
20.1228
20.0919
20.0452
20.093
20.0464
20.1177
20.0759
20.1187
20.077
19.998
20.1827
19.9994
20.1838
19.9809
20.134
19.9821
20.1352
20.1798
19.9955
20.1812
19.9968
20.1313
19.9785
20.1325
19.9798
20.0429
20.0897
20.0441
20.0909
20.0735
20.1153
20.0747
20.1165
20.1086
20.1086
20.1097
20.1097
20.1195
20.1195
20.1207
20.1207
20.0897
20.0428
20.0908
20.044
20.1152
20.0734
20.1165
20.0747
19.9954
20.1799
19.9967
20.1814
19.9782
20.1315
19.9796
20.1327
20.1772
19.9926
20.1786
19.994
20.129
19.9754
20.1303
19.9769
20.0403
20.0872
20.0416
20.0885
20.0707
20.1125
20.0721
20.1139
20.106
20.106
20.1073
20.1073
20.1167
20.1167
20.1181
20.1181
20.0872
20.0402
20.0884
20.0415
20.1125
20.0707
20.1139
20.072
19.9925
20.1773
19.9939
20.1787
19.9756
20.1289
19.9768
20.1303
20.1741
19.9901
20.1757
19.9913
20.1259
19.9731
20.1274
19.9743
20.0378
20.0845
20.039
20.0859
20.0679
20.1095
20.0693
20.111
20.1033
20.1033
20.1047
20.1047
20.1137
20.1137
20.1152
20.1152
20.0846
20.0378
20.0859
20.039
20.1095
20.0679
20.111
20.0693
19.9901
20.1741
19.9913
20.1757
19.9729
20.126
19.9743
20.1274
20.1716
19.9871
20.1729
19.9886
20.1233
19.9702
20.1247
19.9716
20.0351
20.0818
20.0364
20.0832
20.0649
20.1062
20.0664
20.1079
20.1004
20.1004
20.1019
20.1019
20.1104
20.1104
20.112
20.1121
20.0817
20.035
20.0832
20.0364
20.1063
20.065
20.1079
20.0664
19.9871
20.1717
19.9885
20.1729
19.9702
20.1232
19.9715
20.1247
20.1683
19.9849
20.17
19.986
20.1201
19.9677
20.1217
19.9689
20.0326
20.079
20.0338
20.0804
20.062
20.1028
20.0634
20.1046
20.0974
20.0974
20.0989
20.0989
20.1069
20.1069
20.1086
20.1086
20.079
20.0326
20.0804
20.0338
20.1028
20.0619
20.1046
20.0635
19.9847
20.1686
19.9859
20.1701
19.9675
20.1203
19.9689
20.1217
20.1661
19.9821
20.1672
19.9835
20.1176
19.9648
20.1188
19.9662
20.0301
20.0762
20.0313
20.0776
20.0588
20.0992
20.0604
20.1011
20.0944
20.0944
20.0959
20.0959
20.1032
20.1032
20.1051
20.1051
20.0762
20.03
20.0776
20.0313
20.0992
20.0589
20.1011
20.0604
19.9821
20.1661
19.9834
20.1674
19.965
20.1173
19.9662
20.1189
20.1631
19.9802
20.1647
19.9811
20.1144
19.9626
20.1161
19.9636
20.0279
20.0735
20.029
20.0748
20.0559
20.0955
20.0573
20.0974
20.0915
20.0915
20.0929
20.0929
20.0996
20.0996
20.1014
20.1014
20.0735
20.0279
20.0748
20.0289
20.0955
20.0558
20.0974
20.0574
19.9802
20.1632
19.9811
20.1646
19.9625
20.1145
19.9637
20.1158
20.161
19.9783
20.162
19.9792
20.1119
19.9603
20.1131
19.9614
20.0259
20.0711
20.0269
20.0723
20.053
20.0927
20.0544
20.0941
20.0888
20.0888
20.0902
20.0901
20.096
20.096
20.0978
20.0978
20.071
20.0258
20.0723
20.0268
20.0927
20.053
20.0941
20.0544
19.9781
20.1612
19.9791
20.1622
19.9603
20.1118
19.9614
20.1131
20.159
19.9769
20.1599
19.9775
20.1095
19.9585
20.1106
19.9594
20.0244
20.0692
20.0251
20.0701
20.0503
20.0896
20.0516
20.0911
20.0864
20.0864
20.0875
20.0875
20.0927
20.0927
20.0943
20.0943
20.0692
20.0244
20.0701
20.0251
20.0896
20.0502
20.0911
20.0516
19.977
20.1589
19.9775
20.16
19.9582
20.1098
19.9592
20.1108
20.1579
19.9759
20.1584
19.9763
20.1079
19.9568
20.1086
19.9575
20.0232
20.0676
20.0237
20.0683
20.0476
20.0869
20.0489
20.0882
20.0844
20.0844
20.0853
20.0853
20.0897
20.0897
20.0911
20.0911
20.0676
20.0232
20.0683
20.0237
20.0869
20.0476
20.0882
20.0489
19.9758
20.158
19.9763
20.1584
19.9569
20.1077
19.9575
20.1087
20.1567
19.9758
20.1573
19.9757
20.1063
19.9559
20.1071
19.9562
20.023
20.0665
20.0229
20.067
20.0448
20.0845
20.0462
20.0856
20.0829
20.0829
20.0836
20.0836
20.087
20.087
20.0883
20.0883
20.0665
20.023
20.067
20.0228
20.0845
20.0447
20.0856
20.0462
19.9759
20.1567
19.9757
20.1573
19.9558
20.1065
19.9563
20.107
20.1568
19.976
20.1566
19.9758
20.1056
19.9557
20.1059
19.9557
20.0229
20.066
20.0229
20.0662
20.0449
20.0827
20.0444
20.0835
20.0818
20.0818
20.0823
20.0823
20.0848
20.0848
20.0859
20.0859
20.066
20.0229
20.0662
20.023
20.0827
20.0449
20.0835
20.0443
19.9761
20.1566
19.9759
20.1566
19.9556
20.1057
19.9556
20.1061
20.1571
19.9773
20.1569
19.9765
20.1053
19.9563
20.1053
19.9559
20.0238
20.066
20.0232
20.0659
20.0455
20.0815
20.0453
20.082
20.0815
20.0814
20.0816
20.0816
20.0832
20.0832
20.0839
20.0839
20.066
20.0237
20.0659
20.0232
20.0815
20.0455
20.082
20.0452
19.9773
20.1571
19.9766
20.1568
19.9561
20.1056
19.9557
20.1056
20.1584
19.9795
20.1576
19.9782
20.106
19.9576
20.1056
19.9568
20.0254
20.0669
20.0245
20.0664
20.0464
20.081
20.0459
20.0812
20.0818
20.0818
20.0815
20.0815
20.0823
20.0823
20.0826
20.0826
20.0669
20.0254
20.0664
20.0245
20.081
20.0464
20.0812
20.0459
19.9795
20.1584
19.9782
20.1577
19.9576
20.106
19.9567
20.1057
20.1604
19.9827
20.1593
19.9809
20.1074
19.9598
20.1066
19.9586
20.028
20.0685
20.0266
20.0676
20.0479
20.0813
20.0471
20.081
20.083
20.083
20.0823
20.0823
20.0822
20.0822
20.0822
20.0822
20.0685
20.0279
20.0676
20.0266
20.0813
20.0479
20.081
20.0471
19.9827
20.1604
19.9809
20.1593
19.9598
20.1074
19.9586
20.1066
20.1631
19.9878
20.1617
19.985
20.1097
19.9623
20.1084
19.961
20.0313
20.071
20.0295
20.0696
20.0502
20.0824
20.049
20.0817
20.085
20.085
20.0839
20.0839
20.0831
20.0831
20.0825
20.0825
20.0709
20.0313
20.0696
20.0295
20.0824
20.0502
20.0817
20.0489
19.9878
20.1631
19.985
20.1617
19.9623
20.1097
19.961
20.1084
20.1665
19.9912
20.1647
19.9893
20.1129
19.9675
20.1112
19.9648
20.0354
20.0742
20.0333
20.0725
20.0533
20.0843
20.0516
20.0832
20.0878
20.0878
20.0863
20.0863
20.0849
20.0849
20.0838
20.0838
20.0742
20.0354
20.0725
20.0333
20.0843
20.0533
20.0832
20.0516
19.9912
20.1665
19.9893
20.1647
19.9675
20.1129
19.9648
20.1112
20.1707
19.9961
20.1685
19.9935
20.1171
19.9732
20.1149
19.9703
20.0402
20.0783
20.0377
20.0762
20.0572
20.0871
20.0552
20.0856
20.0915
20.0915
20.0896
20.0896
20.0876
20.0876
20.0861
20.0861
20.0783
20.0402
20.0762
20.0377
20.0871
20.0572
20.0856
20.0552
19.9961
20.1707
19.9935
20.1685
19.9732
20.1171
19.9703
20.1149
20.1753
20.0021
20.173
19.999
20.1221
19.9796
20.1195
19.9763
20.0457
20.083
20.0429
20.0806
20.0618
20.0907
20.0594
20.0888
20.0959
20.0959
20.0936
20.0936
20.0913
20.0913
20.0893
20.0893
20.083
20.0457
20.0806
20.0429
20.0907
20.0618
20.0888
20.0594
20.0021
20.1753
19.999
20.173
19.9796
20.1221
19.9763
20.1195
20.1801
20.0087
20.1777
20.0053
20.128
19.9867
20.125
19.983
20.0518
20.0883
20.0487
20.0856
20.067
20.0951
20.0643
20.0928
20.101
20.101
20.0984
20.0984
20.0958
20.0958
20.0934
20.0934
20.0883
20.0518
20.0856
20.0487
20.0951
20.067
20.0928
20.0643
20.0087
20.1801
20.0053
20.1777
19.9867
20.128
19.983
20.125
20.1845
20.0161
20.1825
20.0123
20.1342
19.9949
20.1311
19.9906
20.0585
20.0941
20.0551
20.0911
20.0728
20.1001
20.0698
20.0975
20.1067
20.1067
20.1038
20.1038
20.1013
20.1013
20.0984
20.0984
20.0941
20.0585
20.0911
20.0551
20.1001
20.0728
20.0975
20.0698
20.0161
20.1845
20.0123
20.1825
19.9949
20.1342
19.9906
20.1311
20.187
20.025
20.1861
20.0203
20.14
20.0043
20.1372
19.9994
20.0655
20.1001
20.0619
20.0971
20.0789
20.1056
20.0758
20.1028
20.113
20.113
20.1098
20.1098
20.1075
20.1075
20.1043
20.1043
20.1001
20.0655
20.0971
20.0619
20.1056
20.0789
20.1028
20.0758
20.025
20.187
20.0203
20.1861
20.0043
20.14
19.9995
20.1372
20.1811
20.0405
20.1861
20.0311
20.1404
20.0173
20.1417
20.0096
20.0731
20.1064
20.0692
20.1032
20.0853
20.1117
20.082
20.1086
20.1198
20.1198
20.1163
20.1163
20.1145
20.1145
20.1109
20.1109
20.1064
20.0731
20.1032
20.0692
20.1117
20.0853
20.1086
20.082
20.0405
20.1811
20.0311
20.1861
20.0173
20.1404
20.0096
20.1417
20.1987
20.0349
20.175
20.0513
20.1567
20.0155
20.1378
20.0264
20.0759
20.1137
20.0767
20.1099
20.09
20.1191
20.0888
20.1152
20.1274
20.1274
20.1235
20.1236
20.1223
20.1223
20.1184
20.1184
20.1137
20.0759
20.1099
20.0767
20.1191
20.09
20.1152
20.0888
20.0349
20.1987
20.0513
20.175
20.0155
20.1567
20.0264
20.1378
20.449
19.9841
20.3395
20.0056
20.4445
19.9659
20.3382
19.9929
19.9727
20.0363
20.0172
20.0654
19.9764
20.0459
20.0192
20.0712
20.0763
20.0763
20.0926
20.0926
20.085
20.085
20.0975
20.0975
20.0363
19.9727
20.0654
20.0172
20.0459
19.9764
20.0712
20.0192
19.9841
20.449
20.0056
20.3395
19.9659
20.4445
19.9929
20.3382
20.2842
20.0954
20.3351
20.07
20.2916
20.07
20.3394
20.0451
20.0284
20.0416
20.0087
20.0393
20.025
20.0502
20.0083
20.0481
20.0606
20.0606
20.0673
20.0673
20.0722
20.0722
20.0776
20.0776
20.0416
20.0284
20.0393
20.0087
20.0502
20.025
20.0481
20.0083
20.0954
20.2842
20.0699
20.3351
20.07
20.2916
20.0451
20.3394
20.2473
20.0997
20.2617
20.1005
20.255
20.0742
20.2696
20.0751
20.0466
20.0504
20.0401
20.046
20.0425
20.0592
20.0357
20.0546
20.0608
20.0608
20.0594
20.0594
20.0731
20.0731
20.0715
20.0715
20.0504
20.0466
20.046
20.0401
20.0592
20.0425
20.0546
20.0357
20.0997
20.2473
20.1005
20.2617
20.0742
20.255
20.0751
20.2696
20.2295
20.0943
20.2371
20.0972
20.2365
20.0687
20.2445
20.0716
20.0521
20.0576
20.0502
20.0543
20.0488
20.0667
20.0466
20.0632
20.0666
20.0666
20.0635
20.0635
20.0791
20.0791
20.0759
20.0759
20.0576
20.0521
20.0543
20.0502
20.0667
20.0488
20.0632
20.0466
20.0943
20.2295
20.0972
20.2371
20.0687
20.2365
20.0716
20.2445
20.2187
20.0885
20.2235
20.0913
20.2253
20.0629
20.2303
20.0657
20.0533
20.0626
20.053
20.0604
20.0507
20.072
20.0501
20.0696
20.0727
20.0727
20.0698
20.0698
20.0855
20.0855
20.0824
20.0824
20.0626
20.0533
20.0604
20.053
20.072
20.0507
20.0696
20.0501
20.0885
20.2187
20.0913
20.2235
20.0629
20.2252
20.0657
20.2303
20.2113
20.0835
20.2147
20.0859
20.2176
20.0579
20.2211
20.0603
20.0533
20.0658
20.0534
20.0644
20.0508
20.0756
20.0509
20.074
20.0776
20.0776
20.0754
20.0754
20.0908
20.0908
20.0883
20.0883
20.0658
20.0533
20.0644
20.0534
20.0756
20.0509
20.074
20.0509
20.0835
20.2113
20.0859
20.2147
20.0579
20.2175
20.0603
20.2211
20.2058
20.0794
20.2084
20.0814
20.2119
20.0537
20.2145
20.0557
20.0528
20.0678
20.0531
20.0669
20.0503
20.078
20.0506
20.077
20.0813
20.0813
20.0796
20.0796
20.0948
20.0948
20.093
20.093
20.0678
20.0528
20.0669
20.0531
20.078
20.0503
20.077
20.0507
20.0794
20.2058
20.0814
20.2084
20.0537
20.2119
20.0557
20.2145
20.2015
20.0758
20.2035
20.0775
20.2075
20.0501
20.2096
20.0518
20.0519
20.0689
20.0524
20.0684
20.0494
20.0794
20.0499
20.0788
20.0837
20.0837
20.0826
20.0826
20.0976
20.0976
20.0963
20.0963
20.0689
20.0519
20.0684
20.0524
20.0794
20.0494
20.0788
20.0499
20.0758
20.2015
20.0775
20.2035
20.0501
20.2075
20.0518
20.2096
20.1979
20.0726
20.1997
20.0742
20.2039
20.0469
20.2056
20.0484
20.0507
20.0693
20.0513
20.0692
20.0482
20.08
20.0488
20.0798
20.0851
20.0851
20.0845
20.0845
20.0993
20.0993
20.0985
20.0985
20.0693
20.0507
20.0692
20.0513
20.08
20.0482
20.0798
20.0488
20.0727
20.198
20.0742
20.1997
20.0469
20.2039
20.0484
20.2056
20.1949
20.0697
20.1964
20.0711
20.2008
20.0439
20.2023
20.0453
20.0493
20.0691
20.0501
20.0692
20.0468
20.08
20.0475
20.0801
20.0857
20.0857
20.0855
20.0855
20.1001
20.1001
20.0998
20.0998
20.0691
20.0493
20.0692
20.0501
20.08
20.0468
20.0801
20.0476
20.0698
20.1949
20.0712
20.1964
20.0439
20.2008
20.0454
20.2023
20.192
20.067
20.1934
20.0683
20.1979
20.0412
20.1993
20.0425
20.0478
20.0684
20.0486
20.0688
20.0453
20.0795
20.0461
20.0798
20.0857
20.0857
20.0858
20.0858
20.1002
20.1002
20.1002
20.1002
20.0684
20.0478
20.0688
20.0486
20.0795
20.0453
20.0798
20.0461
20.067
20.1921
20.0683
20.1935
20.0412
20.1979
20.0425
20.1993
20.1894
20.0643
20.1907
20.0656
20.1952
20.0385
20.1965
20.0398
20.046
20.0674
20.0469
20.068
20.0435
20.0785
20.0444
20.0791
20.0851
20.0851
20.0855
20.0855
20.0997
20.0997
20.1
20.1
20.0674
20.046
20.068
20.0469
20.0785
20.0435
20.0791
20.0444
20.0643
20.1894
20.0656
20.1907
20.0386
20.1952
20.0398
20.1966
20.1867
20.0617
20.1881
20.063
20.1924
20.036
20.1938
20.0372
20.0441
20.066
20.045
20.0667
20.0416
20.0772
20.0426
20.0779
20.084
20.084
20.0846
20.0846
20.0987
20.0987
20.0992
20.0992
20.066
20.0441
20.0667
20.045
20.0772
20.0415
20.0779
20.0425
20.0617
20.1868
20.063
20.1881
20.0359
20.1926
20.0372
20.1939
20.1842
20.059
20.1855
20.0603
20.19
20.0332
20.1912
20.0346
20.042
20.0643
20.043
20.0652
20.0394
20.0755
20.0405
20.0764
20.0826
20.0826
20.0834
20.0834
20.0972
20.0972
20.098
20.098
20.0643
20.042
20.0652
20.043
20.0755
20.0395
20.0764
20.0405
20.059
20.1842
20.0604
20.1855
20.0333
20.1899
20.0345
20.1913
20.1815
20.0565
20.1829
20.0577
20.1873
20.0306
20.1887
20.0318
20.0397
20.0624
20.0409
20.0634
20.0372
20.0736
20.0383
20.0746
20.0809
20.0809
20.0818
20.0818
20.0955
20.0954
20.0964
20.0964
20.0624
20.0397
20.0634
20.0408
20.0735
20.0371
20.0746
20.0383
20.0565
20.1816
20.0577
20.1829
20.0304
20.1876
20.0319