/*--------------------------------*- C++ -*----------------------------------*\
  =========                 |
  \\      /  F ield         | OpenFOAM: The Open Source CFD Toolbox
   \\    /   O peration     | Website:  https://openfoam.org
    \\  /    A nd           | Version:  9
     \\/     M anipulation  |
\*---------------------------------------------------------------------------*/
FoamFile
{
    format      ascii;
    class       surfaceScalarField;
    location    "4.8";
    object      phi;
}
// * * * * * * * * * * * * * * * * * * * * * * * * * * * * * * * * * * * * * //

dimensions      [0 3 -1 0 0 0 0];

internalField   nonuniform List<scalar> 
104044
(
8.6313e-06
-0.00014099
-2.46443e-05
0.000128712
2.82916e-05
-9.15205e-05
2.30835e-05
-2.96221e-06
0.000101331
-2.1301e-05
8.14992e-06
-3.74039e-05
3.34512e-05
2.70613e-05
-2.86246e-06
-2.13644e-05
-7.89309e-06
-0.000170386
0.000153635
-6.96318e-05
3.02056e-06
8.18017e-05
-5.65658e-06
2.19498e-06
-5.59458e-07
-9.75124e-05
-1.94849e-06
9.84705e-05
-1.41238e-06
-0.000100521
-2.12535e-06
-6.91736e-08
9.99445e-05
2.21155e-06
-5.89818e-07
-2.18532e-06
-1.44202e-06
-4.33769e-06
-7.974e-08
2.86918e-06
5.86864e-07
-8.18764e-05
8.23616e-05
-9.33333e-05
7.18682e-08
9.17229e-05
3.04057e-07
1.66522e-08
1.91331e-12
-0.000101816
-1.56192e-06
0.00010113
2.17877e-06
-0.000101816
-1.56192e-06
6.91779e-08
0.00010113
2.17878e-06
1.26025e-12
-4.33967e-06
3.36254e-06
-4.33968e-06
7.97417e-08
3.36255e-06
1.75792e-12
-9.73111e-05
9.58211e-05
-9.73112e-05
-7.18599e-08
9.58211e-05
5.93424e-13
-1.66482e-08
5.59463e-07
-0.000100521
-2.12539e-06
9.99445e-05
2.21159e-06
-9.75124e-05
-1.94863e-06
2.96222e-06
9.84705e-05
-1.41221e-06
5.89816e-07
-4.33773e-06
2.86923e-06
-2.18548e-06
2.86246e-06
-1.44187e-06
-5.86839e-07
-9.33334e-05
9.1723e-05
-8.18768e-05
-3.02049e-06
8.23618e-05
-3.04038e-07
-2.19492e-06
-8.63117e-06
-9.15203e-05
2.30829e-05
0.000101331
-2.13005e-05
-0.000140991
-2.4644e-05
0.000128712
2.82913e-05
-8.14975e-06
2.70608e-05
-2.1364e-05
-3.7403e-05
3.34505e-05
7.89281e-06
-6.9632e-05
8.18016e-05
-0.000170386
0.000153635
5.65634e-06
1.59324e-06
-0.000122134
-2.43385e-05
0.000118333
2.65465e-05
-0.000104952
2.46755e-05
-1.61433e-06
0.000106347
-2.28627e-05
3.92715e-06
-2.41902e-05
2.68405e-05
2.43292e-05
-1.75067e-06
-2.22718e-05
-1.44215e-05
-0.000140992
0.000131075
-9.06513e-05
4.3388e-06
9.65665e-05
-1.15471e-05
3.93244e-06
2.96303e-07
-9.97849e-05
3.80434e-07
0.000101107
-3.61284e-06
-9.99172e-05
-7.99814e-07
2.20437e-07
0.000100288
5.05011e-07
-3.82687e-08
-2.82531e-07
-2.74425e-06
-1.27807e-06
7.20078e-08
1.1951e-06
1.36787e-06
-8.50095e-05
8.83609e-05
-9.12499e-05
3.13629e-07
9.15043e-05
1.00203e-06
1.96949e-07
6.04436e-12
-0.000100771
-8.01547e-07
0.0001007
1.09248e-06
-0.000100771
-8.01553e-07
-2.20415e-07
0.0001007
1.09247e-06
4.67568e-12
-1.02471e-06
1.45584e-06
-1.02471e-06
-7.19904e-08
1.45584e-06
-3.84374e-13
-9.49933e-05
9.45054e-05
-9.49933e-05
-3.13628e-07
9.45054e-05
3.31088e-12
-1.96933e-07
-2.96274e-07
-9.99172e-05
-7.99832e-07
0.000100288
5.05029e-07
-9.97848e-05
3.80354e-07
1.61434e-06
0.000101107
-3.61272e-06
3.82887e-08
-1.27809e-06
1.19513e-06
-2.82654e-07
1.75067e-06
-2.7441e-06
-1.36784e-06
-9.125e-05
9.15044e-05
-8.50095e-05
-4.33875e-06
8.83608e-05
-1.00199e-06
-3.93238e-06
-1.59323e-06
-0.000104952
2.46751e-05
0.000106347
-2.28623e-05
-0.000122135
-2.43382e-05
0.000118333
2.65462e-05
-3.92711e-06
2.43287e-05
-2.22714e-05
-2.41898e-05
2.68402e-05
1.44211e-05
-9.06511e-05
9.65663e-05
-0.000140992
0.000131075
1.15468e-05
-5.76217e-07
-0.000115699
-2.22447e-05
0.000113797
2.47227e-05
-0.000106998
2.35145e-05
-2.00515e-06
0.000107325
-2.24126e-05
2.70084e-07
-2.29925e-05
2.53565e-05
2.38275e-05
-1.76181e-06
-2.24468e-05
-1.727e-05
-0.000124094
0.00011912
-0.000100072
4.19563e-06
0.00010212
-1.60124e-05
4.31005e-06
6.40062e-07
-0.000102237
2.75199e-07
0.000103171
-3.85503e-06
-0.000100851
-3.74046e-07
5.05796e-07
0.000101488
-1.29051e-07
5.02511e-07
4.11175e-07
-3.80563e-06
-4.89002e-07
3.71019e-07
5.7409e-08
1.86144e-06
-9.14517e-05
9.40611e-05
-9.22296e-05
5.14099e-07
9.32029e-05
1.6304e-06
4.16162e-07
2.15502e-11
-0.000100858
-3.91504e-07
0.00010119
5.65314e-07
-0.000100858
-3.91541e-07
-5.05723e-07
0.00010119
5.65308e-07
8.40458e-12
-5.79803e-07
7.93232e-07
-5.79812e-07
-3.70989e-07
7.93228e-07
-7.58714e-11
-9.43417e-05
9.44644e-05
-9.43417e-05
-5.14249e-07
9.44644e-05
-1.35231e-11
-4.16182e-07
-6.39969e-07
-0.000100851
-3.74147e-07
0.000101488
-1.29057e-07
-0.000102237
2.74757e-07
2.00509e-06
0.000103172
-3.85497e-06
-5.0248e-07
-4.8902e-07
5.7414e-08
4.11095e-07
1.76181e-06
-3.80555e-06
-1.86154e-06
-9.22296e-05
9.32027e-05
-9.14515e-05
-4.19558e-06
9.40603e-05
-1.63038e-06
-4.31003e-06
5.7617e-07
-0.000106998
2.3514e-05
0.000107325
-2.24124e-05
-0.000115699
-2.22446e-05
0.000113798
2.47225e-05
-2.70085e-07
2.38271e-05
-2.24465e-05
-2.29922e-05
2.53562e-05
1.72697e-05
-0.000100071
0.00010212
-0.000124095
0.00011912
1.6012e-05
-1.50091e-06
-0.00011244
-2.09315e-05
0.000111457
2.34159e-05
-0.000107498
2.27677e-05
-2.41728e-06
0.000107603
-2.19561e-05
-1.12198e-06
-2.12682e-05
2.37469e-05
2.28401e-05
-2.19945e-06
-2.19357e-05
-1.83548e-05
-0.000115615
0.000113038
-0.000103253
3.77174e-06
0.000103894
-1.77632e-05
3.94413e-06
6.80096e-07
-0.000103926
-1.63329e-08
0.000104567
-3.72217e-06
-0.000102137
-3.86943e-07
6.63377e-07
0.000102783
-2.42779e-07
6.83435e-07
1.1954e-07
-3.75658e-06
-3.54364e-07
5.94462e-07
-2.05286e-07
2.12303e-06
-9.61283e-05
9.77607e-05
-9.42603e-05
6.51126e-07
9.53453e-05
1.99648e-06
5.84642e-07
-3.65541e-11
-0.000101638
-1.15173e-07
0.000102164
2.51997e-07
-0.000101638
-1.1513e-07
-6.63268e-07
0.000102164
2.52006e-07
1.21857e-10
-2.31434e-07
3.77622e-07
-2.3158e-07
-5.93997e-07
3.77606e-07
8.8247e-12
-9.48179e-05
9.53539e-05
-9.48179e-05
-6.51283e-07
9.53541e-05
-2.87144e-10
-5.85431e-07
-6.79945e-07
-0.000102137
-3.87003e-07
0.000102783
-2.42795e-07
-0.000103925
-1.66021e-08
2.41719e-06
0.000104567
-3.72217e-06
-6.8191e-07
-3.54986e-07
-2.05499e-07
1.24367e-07
2.19792e-06
-3.75725e-06
-2.12317e-06
-9.42605e-05
9.53453e-05
-9.61288e-05
-3.77165e-06
9.77607e-05
-1.99818e-06
-3.94229e-06
1.50087e-06
-0.000107498
2.27673e-05
0.000107603
-2.19558e-05
-0.000112441
-2.09313e-05
0.000111457
2.34156e-05
1.12156e-06
2.28391e-05
-2.19355e-05
-2.12682e-05
2.37466e-05
1.83546e-05
-0.000103253
0.000103894
-0.000115615
0.000113039
1.77635e-05
-1.91292e-06
-0.000110752
-2.00934e-05
0.000110256
2.25024e-05
-0.00010769
2.2304e-05
-2.70809e-06
0.000107785
-2.16037e-05
-1.72932e-06
-2.02586e-05
2.2693e-05
2.22782e-05
-2.55066e-06
-2.15445e-05
-1.8692e-05
-0.000111177
0.000109776
-0.000104234
3.40449e-06
0.000104441
-1.83976e-05
3.54132e-06
6.08649e-07
-0.000105108
-2.13836e-07
0.000105596
-3.59016e-06
-0.000103411
-4.67728e-07
7.15113e-07
0.000104024
-2.52482e-07
6.44744e-07
-1.20083e-07
-3.61705e-06
-4.24785e-07
6.92463e-07
-2.50278e-07
2.21502e-06
-9.90089e-05
9.99846e-05
-9.64061e-05
7.21627e-07
9.74317e-05
2.17299e-06
6.87407e-07
-8.29239e-11
-0.000102734
1.56095e-08
0.000103332
1.01487e-07
-0.000102734
1.56806e-08
-7.15112e-07
0.000103332
1.01509e-07
-9.29464e-10
-3.71235e-08
1.61095e-07
-4.04899e-08
-6.91799e-07
1.61419e-07
4.55979e-11
-9.60031e-05
9.67403e-05
-9.60028e-05
-7.21683e-07
9.67402e-05
1.00036e-09
-6.8821e-07
-6.08615e-07
-0.000103411
-4.67699e-07
0.000104024
-2.52463e-07
-0.000105108
-2.13867e-07
2.70815e-06
0.000105596
-3.59012e-06
-6.44557e-07
-4.24501e-07
-2.50191e-07
-1.20046e-07
2.55071e-06
-3.61702e-06
-2.21499e-06
-9.64059e-05
9.74315e-05
-9.90088e-05
-3.40438e-06
9.99843e-05
-2.17323e-06
-3.54138e-06
1.91301e-06
-0.000107691
2.23039e-05
0.000107785
-2.16036e-05
-0.000110752
-2.0093e-05
0.000110256
2.25019e-05
1.72936e-06
2.2278e-05
-2.15444e-05
-2.02583e-05
2.26926e-05
1.86918e-05
-0.000104234
0.000104441
-0.000111178
0.000109777
1.83973e-05
-2.10203e-06
-0.000109919
-1.94612e-05
0.000109714
2.17681e-05
-0.000107906
2.1934e-05
-2.88657e-06
0.000108053
-2.1297e-05
-2.00569e-06
-1.95499e-05
2.18927e-05
2.18825e-05
-2.77973e-06
-2.12287e-05
-1.86911e-05
-0.000108758
0.000107988
-0.000104572
3.11685e-06
0.000104698
-1.85327e-05
3.2189e-06
5.09302e-07
-0.000106041
-3.14235e-07
0.000106465
-3.50561e-06
-0.000104611
-5.13872e-07
7.03516e-07
0.000105182
-2.52284e-07
5.53976e-07
-2.74933e-07
-3.50412e-06
-4.91605e-07
7.07458e-07
-2.47962e-07
2.11621e-06
-0.000100777
0.000101463
-9.83669e-05
7.30225e-07
9.9239e-05
2.15164e-06
7.24879e-07
-7.82603e-11
-0.000103931
7.13379e-08
0.000104537
2.6498e-08
-0.000103931
7.12956e-08
-7.03677e-07
0.000104537
2.65359e-08
-6.01041e-11
4.99428e-08
5.83365e-08
4.99177e-08
-7.07544e-07
5.83584e-08
-9.13002e-11
-9.75152e-05
9.83168e-05
-9.75151e-05
-7.30433e-07
9.83167e-05
-6.39629e-11
-7.24997e-07
-5.09402e-07
-0.00010461
-5.14015e-07
0.000105182
-2.52189e-07
-0.000106041
-3.14503e-07
2.88668e-06
0.000106465
-3.50543e-06
-5.53988e-07
-4.91672e-07
-2.47908e-07
-2.75052e-07
2.77984e-06
-3.50402e-06
-2.11645e-06
-9.83664e-05
9.92384e-05
-0.000100776
-3.11672e-06
0.000101462
-2.15166e-06
-3.2187e-06
2.10253e-06
-0.000107906
2.19339e-05
0.000108053
-2.12969e-05
-0.000109919
-1.94596e-05
0.000109714
2.17673e-05
2.00592e-06
2.18824e-05
-2.12287e-05
-1.95491e-05
2.18921e-05
1.86928e-05
-0.000104572
0.000104696
-0.000108761
0.000107994
1.8533e-05
-2.18552e-06
-0.000109608
-1.89023e-05
0.000109595
2.11009e-05
-0.000108235
2.15721e-05
-2.98528e-06
0.000108449
-2.09866e-05
-2.13204e-06
-1.89796e-05
2.12173e-05
2.15332e-05
-2.91394e-06
-2.09333e-05
-1.85214e-05
-0.00010745
0.000107069
-0.00010482
2.89357e-06
0.000104978
-1.84415e-05
2.96932e-06
4.1651e-07
-0.000106878
-3.45937e-07
0.000107291
-3.46884e-06
-0.000105735
-5.22685e-07
6.63686e-07
0.000106282
-2.71789e-07
4.56765e-07
-3.35501e-07
-3.44816e-06
-5.17372e-07
6.78137e-07
-2.56289e-07
1.98964e-06
-0.000102063
0.000102621
-0.000100043
7.03524e-07
0.000100806
2.03366e-06
7.12731e-07
-1.33883e-11
-0.000105136
8.94134e-08
0.000105735
-2.48827e-08
-0.000105136
8.94993e-08
-6.63768e-07
0.000105735
-2.49333e-08
-7.55609e-11
8.21516e-08
-2.66349e-09
8.21372e-08
-6.78327e-07
-2.64995e-09
5.6375e-11
-9.91118e-05
9.99046e-05
-9.91117e-05
-7.03384e-07
9.99046e-05
-6.5836e-11
-7.12958e-07
-4.16693e-07
-0.000105735
-5.22484e-07
0.000106282
-2.71965e-07
-0.000106878
-3.45874e-07
2.98492e-06
0.000107291
-3.46901e-06
-4.57022e-07
-5.17468e-07
-2.56252e-07
-3.35813e-07
2.91372e-06
-3.44807e-06
-1.98968e-06
-0.000100042
0.000100806
-0.000102063
-2.89467e-06
0.000102622
-2.03431e-06
-2.97072e-06
2.18547e-06
-0.000108235
2.1567e-05
0.00010845
-2.09824e-05
-0.000109608
-1.88998e-05
0.000109595
2.10983e-05
2.13249e-06
2.15313e-05
-2.09321e-05
-1.8978e-05
2.12165e-05
1.8513e-05
-0.000104819
0.000104979
-0.000107454
0.000107067
1.84378e-05
-2.21493e-06
-0.00010965
-1.8394e-05
0.000109779
2.04797e-05
-0.000108701
2.12116e-05
-3.02953e-06
0.000108987
-2.0683e-05
-2.1836e-06
-1.84469e-05
2.05753e-05
2.11699e-05
-2.98142e-06
-2.06234e-05
-1.82458e-05
-0.000106834
0.000106686
-0.000105158
2.72818e-06
0.000105395
-1.82118e-05
2.77802e-06
3.40244e-07
-0.00010771
-3.35257e-07
0.000108141
-3.46552e-06
-0.00010682
-5.05287e-07
6.17754e-07
0.000107363
-3.1486e-07
3.72783e-07
-3.44139e-07
-3.42879e-06
-5.12132e-07
6.34281e-07
-2.87355e-07
1.87267e-06
-0.000103145
0.000103665
-0.000101527
6.64099e-07
0.00010223
1.91074e-06
6.77889e-07
-1.5431e-11
-0.000106325
1.03061e-07
0.00010692
-8.04992e-08
-0.000106325
1.03034e-07
-6.17824e-07
0.00010692
-8.04695e-08
1.1469e-11
9.43103e-08
-5.03227e-08
9.44389e-08
-6.34257e-07
-5.04073e-08
8.31989e-12
-0.000100677
0.000101444
-0.000100677
-6.64182e-07
0.000101444
6.70066e-11
-6.77571e-07
-3.40306e-07
-0.00010682
-5.05392e-07
0.000107363
-3.14799e-07
-0.00010771
-3.35097e-07
3.02953e-06
0.000108141
-3.46565e-06
-3.7272e-07
-5.1173e-07
-2.87634e-07
-3.43727e-07
2.98145e-06
-3.42897e-06
-1.87295e-06
-0.000101527
0.00010223
-0.000103145
-2.72817e-06
0.000103665
-1.90971e-06
-2.77662e-06
2.21503e-06
-0.000108701
2.12133e-05
0.000108987
-2.06849e-05
-0.000109651
-1.8396e-05
0.000109781
2.04816e-05
2.18316e-06
2.11631e-05
-2.06164e-05
-1.8443e-05
2.05698e-05
1.82479e-05
-0.00010516
0.000105398
-0.000106828
0.00010668
1.82046e-05
-2.21403e-06
-0.000109961
-1.79046e-05
0.000110202
1.98778e-05
-0.000109307
2.08527e-05
-3.03874e-06
0.000109659
-2.03802e-05
-2.19363e-06
-1.79461e-05
1.99582e-05
2.07995e-05
-3.00494e-06
-2.03084e-05
-1.79597e-05
-0.000106654
0.000106709
-0.000105658
2.58224e-06
0.000105969
-1.79136e-05
2.62262e-06
2.78837e-07
-0.000108584
-2.93801e-07
0.000109045
-3.48501e-06
-0.000107903
-4.68727e-07
5.7387e-07
0.000108455
-3.78527e-07
3.04488e-07
-3.16049e-07
-3.43699e-06
-4.8377e-07
5.88691e-07
-3.41023e-07
1.7666e-06
-0.000104174
0.000104696
-0.000102908
6.21692e-07
0.000103584
1.79748e-06
6.35556e-07
6.51332e-11
-0.00010751
1.25305e-07
0.000108109
-1.5091e-07
-0.00010751
1.25236e-07
-5.73763e-07
0.000108109
-1.5085e-07
-4.72225e-11
1.11804e-07
-1.12829e-07
1.11615e-07
-5.88855e-07
-1.12692e-07
-3.08693e-11
-0.000102191
0.000102938
-0.000102192
-6.21756e-07
0.000102939
-1.36218e-10
-6.3626e-07
-2.78798e-07
-0.000107903
-4.68926e-07
0.000108456
-3.78326e-07
-0.000108584
-2.93711e-07
3.03872e-06
0.000109046
-3.48512e-06
-3.04724e-07
-4.84429e-07
-3.40599e-07
-3.16234e-07
3.00483e-06
-3.43709e-06
-1.76679e-06
-0.000102909
0.000103585
-0.000104174
-2.582e-06
0.000104696
-1.79968e-06
-2.62495e-06
2.21422e-06
-0.000109307
2.0861e-05
0.000109659
-2.03886e-05
-0.00010996
-1.79109e-05
0.0001102
1.98852e-05
2.19466e-06
2.08128e-05
-2.03224e-05
-1.79549e-05
1.99705e-05
1.79699e-05
-0.000105656
0.000105965
-0.000106655
0.000106715
1.793e-05
-2.19749e-06
-0.000110484
-1.74319e-05
0.00011082
1.92937e-05
-0.000110042
2.04825e-05
-3.01792e-06
0.000110461
-2.00802e-05
-2.18491e-06
-1.74849e-05
1.93878e-05
2.04574e-05
-2.99898e-06
-2.00266e-05
-1.76073e-05
-0.000106837
0.000107013
-0.000106312
2.47425e-06
0.000106712
-1.76136e-05
2.50147e-06
2.3278e-07
-0.000109524
-2.36568e-07
0.000110025
-3.5151e-06
-0.000109012
-4.21718e-07
5.36243e-07
0.000109586
-4.55582e-07
2.51817e-07
-2.65747e-07
-3.46376e-06
-4.42138e-07
5.48473e-07
-4.11415e-07
1.683e-06
-0.000105225
0.00010578
-0.000104252
5.84582e-07
0.000104928
1.7064e-06
5.96761e-07
1.72029e-10
-0.000108708
1.56082e-07
0.000109322
-2.33396e-07
-0.000108708
1.56134e-07
-5.35862e-07
0.000109322
-2.33457e-07
1.51518e-10
1.38108e-07
-1.88957e-07
1.38136e-07
-5.48124e-07
-1.88965e-07
-2.73284e-10
-0.000103673
0.000104414
-0.000103673
-5.85037e-07
0.000104414
-9.46149e-11
-5.96593e-07
-2.32432e-07
-0.000109013
-4.21913e-07
0.000109586
-4.55329e-07
-0.000109525
-2.39902e-07
3.01909e-06
0.000110026
-3.51294e-06
-2.51582e-07
-4.42119e-07
-4.11202e-07
-2.67722e-07
2.99923e-06
-3.46229e-06
-1.68306e-06
-0.000104251
0.000104927
-0.000105223
-2.47535e-06
0.000105775
-1.70504e-06
-2.50007e-06
2.19574e-06
-0.000110044
2.04885e-05
0.000110463
-2.00837e-05
-0.000110483
-1.74349e-05
0.000110818
1.9295e-05
2.18371e-06
2.04551e-05
-2.00246e-05
-1.74833e-05
1.93842e-05
1.76154e-05
-0.000106308
0.000106706
-0.000106842
0.000107023
1.76112e-05
-2.17443e-06
-0.000111186
-1.69428e-05
0.000111598
1.87047e-05
-0.000110908
2.00998e-05
-2.98104e-06
0.000111386
-1.97713e-05
-2.16493e-06
-1.70116e-05
1.88101e-05
2.00855e-05
-2.96955e-06
-1.97281e-05
-1.72585e-05
-0.000107266
0.000107582
-0.000107132
2.37694e-06
0.000107597
-1.72646e-05
2.40131e-06
1.97282e-07
-0.000110546
-1.76522e-07
0.000111089
-3.54542e-06
-0.000110168
-3.68838e-07
5.04496e-07
0.00011077
-5.39986e-07
2.12058e-07
-2.07078e-07
-3.49517e-06
-3.92308e-07
5.14372e-07
-4.92134e-07
1.61225e-06
-0.000106343
0.000106931
-0.000105604
5.5266e-07
0.000106295
1.63082e-06
5.6283e-07
2.64782e-10
-0.000109939
1.94136e-07
0.000110573
-3.2389e-07
-0.000109939
1.94525e-07
-5.04006e-07
0.000110573
-3.24216e-07
2.45017e-10
1.72463e-07
-2.75227e-07
1.72725e-07
-5.13874e-07
-2.75461e-07
4.12646e-10
-0.000105149
0.000105896
-0.000105149
-5.51429e-07
0.000105896
1.37505e-10
-5.62374e-07
-1.96686e-07
-0.000110168
-3.67728e-07
0.00011077
-5.41055e-07
-0.000110546
-1.73793e-07
2.98189e-06
0.000111089
-3.54785e-06
-2.11434e-07
-3.91745e-07
-4.92669e-07
-2.06625e-07
2.97111e-06
-3.49581e-06
-1.61029e-06
-0.000105603
0.000106295
-0.000106341
-2.37496e-06
0.000106932
-1.6301e-06
-2.40211e-06
2.1684e-06
-0.000110908
2.0115e-05
0.000111386
-1.97795e-05
-0.000111187
-1.6961e-05
0.000111599
1.87167e-05
2.16159e-06
2.01023e-05
-1.97376e-05
-1.70276e-05
1.88209e-05
1.72724e-05
-0.00010713
0.000107598
-0.000107271
0.000107583
1.72761e-05
-2.1383e-06
-0.00011203
-1.64636e-05
0.000112505
1.81266e-05
-0.000111897
1.97018e-05
-2.93055e-06
0.000112436
-1.94484e-05
-2.1366e-06
-1.65217e-05
1.82267e-05
1.9689e-05
-2.92587e-06
-1.94113e-05
-1.68747e-05
-0.000107957
0.000108368
-0.000108077
2.29469e-06
0.00010861
-1.68972e-05
2.31113e-06
1.69945e-07
-0.000111654
-1.08682e-07
0.000112237
-3.57483e-06
-0.000111381
-3.11759e-07
4.7769e-07
0.000112012
-6.27226e-07
1.81247e-07
-1.46037e-07
-3.5254e-06
-3.37481e-07
4.85505e-07
-5.77994e-07
1.5505e-06
-0.000107532
0.000108167
-0.00010699
5.23619e-07
0.000107705
1.56471e-06
5.32365e-07
4.14705e-11
-0.000111212
2.36769e-07
0.00011187
-4.16854e-07
-0.000111212
2.36666e-07
-4.77627e-07
0.00011187
-4.16759e-07
2.00627e-10
2.12914e-07
-3.66909e-07
2.13151e-07
-4.85139e-07
-3.67089e-07
-1.35512e-10
-0.000106641
0.000107401
-0.000106641
-5.24055e-07
0.000107401
3.28874e-10
-5.31452e-07
-1.69831e-07
-0.000111381
-3.12265e-07
0.000112012
-6.26866e-07
-0.000111653
-1.10653e-07
2.93152e-06
0.000112237
-3.57439e-06
-1.80788e-07
-3.36825e-07
-5.78609e-07
-1.44302e-07
2.92662e-06
-3.52686e-06
-1.55155e-06
-0.00010699
0.000107705
-0.000107533
-2.29638e-06
0.000108167
-1.56329e-06
-2.30885e-06
2.13671e-06
-0.000111897
1.97089e-05
0.000112437
-1.94541e-05
-0.000112031
-1.64685e-05
0.000112505
1.81314e-05
2.13181e-06
1.96999e-05
-1.94164e-05
-1.65339e-05
1.82339e-05
1.68825e-05
-0.000108079
0.000108609
-0.000107959
0.000108373
1.691e-05
-2.09232e-06
-0.000113009
-1.60381e-05
0.000113551
1.75888e-05
-0.000112987
1.93509e-05
-2.87873e-06
0.000113563
-1.91403e-05
-2.09442e-06
-1.60756e-05
1.7666e-05
1.93207e-05
-2.87439e-06
-1.90918e-05
-1.65256e-05
-0.000108828
0.000109315
-0.000109163
2.22206e-06
0.000109766
-1.65352e-05
2.23191e-06
1.50844e-07
-0.000112836
-5.08704e-08
0.000113456
-3.59897e-06
-0.000112652
-2.53536e-07
4.55577e-07
0.000113311
-7.10413e-07
1.57839e-07
-7.98072e-08
-3.55133e-06
-2.79688e-07
4.61098e-07
-6.63041e-07
1.49471e-06
-0.000108814
0.00010949
-0.000108425
4.99278e-07
0.000109167
1.50558e-06
5.05523e-07
-2.00672e-10
-0.000112532
2.80673e-07
0.000113214
-5.06083e-07
-0.000112532
2.80501e-07
-4.56028e-07
0.000113214
-5.05952e-07
-1.46485e-10
2.56207e-07
-4.57808e-07
2.55945e-07
-4.61432e-07
-4.57618e-07
-4.27574e-10
-0.000108163
0.000108944
-0.000108163
-5.00273e-07
0.000108944
-4.23986e-10
-5.06736e-07
-1.51313e-07
-0.000112652
-2.53943e-07
0.000113311
-7.10183e-07
-0.000112836
-5.06325e-08
2.87932e-06
0.000113456
-3.60013e-06
-1.58142e-07
-2.80604e-07
-6.62506e-07
-8.13456e-08
2.87529e-06
-3.55153e-06
-1.49605e-06
-0.000108426
0.000109168
-0.000108815
-2.22594e-06
0.000109494
-1.50818e-06
-2.23705e-06
2.09263e-06
-0.00011299
1.93666e-05
0.000113563
-1.91535e-05
-0.000113007
-1.60578e-05
0.000113553
1.76041e-05
2.09442e-06
1.93332e-05
-1.91049e-05
-1.60863e-05
1.7679e-05
1.65247e-05
-0.000109163
0.000109778
-0.00010883
0.000109296
1.65428e-05
-2.04123e-06
-0.000114093
-1.56065e-05
0.000114667
1.70734e-05
-0.000114165
1.89647e-05
-2.818e-06
0.000114789
-1.88114e-05
-2.04607e-06
-1.56444e-05
1.71484e-05
1.89503e-05
-2.81839e-06
-1.87803e-05
-1.61505e-05
-0.000109847
0.000110391
-0.000110373
2.15957e-06
0.000111027
-1.61761e-05
2.16774e-06
1.38047e-07
-0.000114089
1.628e-09
0.000114739
-3.60755e-06
-0.000113976
-2.00212e-07
4.37293e-07
0.000114658
-7.80765e-07
1.42352e-07
-2.51067e-08
-3.56922e-06
-2.23814e-07
4.41193e-07
-7.40367e-07
1.44654e-06
-0.000110177
0.000110892
-0.000109915
4.79078e-07
0.000110682
1.45544e-06
4.83871e-07
6.02782e-11
-0.000113898
3.2008e-07
0.000114598
-5.82629e-07
-0.000113898
3.19909e-07
-4.37106e-07
0.000114598
-5.82435e-07
-1.1563e-10
2.98073e-07
-5.41049e-07
2.97873e-07
-4.41431e-07
-5.40857e-07
-1.17849e-10
-0.000109726
0.000110525
-0.000109726
-4.79365e-07
0.000110525
-3.71195e-10
-4.84839e-07
-1.37635e-07
-0.000113977
-2.00842e-07
0.000114658
-7.80025e-07
-0.00011409
5.61256e-10
2.81874e-06
0.000114739
-3.60649e-06
-1.42645e-07
-2.24456e-07
-7.39715e-07
-2.60309e-08
2.81852e-06
-3.56882e-06
-1.44673e-06
-0.000109915
0.000110682
-0.000110181
-2.15601e-06
0.000110891
-1.45691e-06
-2.1697e-06
2.04213e-06
-0.000114165
1.89713e-05
0.000114789
-1.88188e-05
-0.000114097
-1.56036e-05
0.000114666
1.70769e-05
2.04718e-06
1.89622e-05
-1.87923e-05
-1.56559e-05
1.71592e-05
1.6178e-05
-0.000110386
0.000111023
-0.000109826
0.0001104
1.61853e-05
-2.00567e-06
-0.000115251
-1.52066e-05
0.00011586
1.66026e-05
-0.000115412
1.86016e-05
-2.75277e-06
0.000116043
-1.84856e-05
-2.00359e-06
-1.52389e-05
1.66592e-05
1.85854e-05
-2.75466e-06
-1.84577e-05
-1.58054e-05
-0.000110973
0.000111572
-0.000111681
2.10671e-06
0.00011237
-1.58211e-05
2.11082e-06
1.30662e-07
-0.000115396
4.20612e-08
0.000116062
-3.59191e-06
-0.000115341
-1.57208e-07
4.22172e-07
0.000116036
-8.28979e-07
1.32907e-07
2.133e-08
-3.56543e-06
-1.75881e-07
4.24871e-07
-7.99434e-07
1.40611e-06
-0.000111612
0.000112355
-0.000111452
4.62311e-07
0.000112239
1.41174e-06
4.65814e-07
-1.00726e-10
-0.000115297
3.50782e-07
0.000116007
-6.38451e-07
-0.000115297
3.50747e-07
-4.22373e-07
0.000116007
-6.3849e-07
4.57654e-11
3.33089e-07
-6.07218e-07
3.33054e-07
-4.24715e-07
-6.07181e-07
-2.69482e-10
-0.000111324
0.000112138
-0.000111324
-4.63113e-07
0.000112138
-6.44355e-11
-4.65853e-07
-1.30953e-07
-0.000115341
-1.57275e-07
0.000116036
-8.29165e-07
-0.000115396
4.30094e-08
2.75262e-06
0.000116063
-3.59359e-06
-1.32541e-07
-1.75975e-07
-7.99356e-07
2.16455e-08
2.75532e-06
-3.56593e-06
-1.40799e-06
-0.000111451
0.000112239
-0.000111611
-2.11119e-06
0.000112357
-1.41141e-06
-2.10983e-06
2.00852e-06
-0.000115414
1.86157e-05
0.000116045
-1.85023e-05
-0.00011525
-1.52268e-05
0.000115863
1.66222e-05
2.00336e-06
1.85897e-05
-1.84628e-05
-1.52449e-05
1.66643e-05
1.58053e-05
-0.000111679
0.000112379
-0.000110979
0.000111557
1.58233e-05
-1.9586e-06
-0.000116463
-1.48075e-05
0.000117073
1.61558e-05
-0.000116689
1.81879e-05
-2.68312e-06
0.000117336
-1.81109e-05
-1.95824e-06
-1.48377e-05
1.61933e-05
1.81832e-05
-2.68776e-06
-1.80991e-05
-1.54289e-05
-0.000112163
0.000112784
-0.000113065
2.05267e-06
0.000113772
-1.54288e-05
2.0595e-06
1.25717e-07
-0.000116731
6.7524e-08
0.000117401
-3.54703e-06
-0.000116726
-1.26062e-07
4.08674e-07
0.000117419
-8.50386e-07
1.26789e-07
5.39942e-08
-3.53682e-06
-1.38464e-07
4.10744e-07
-8.35253e-07
1.36537e-06
-0.000113098
0.000113852
-0.000113022
4.46559e-07
0.000113815
1.37094e-06
4.49325e-07
6.26488e-11
-0.000116709
3.69051e-07
0.000117416
-6.66684e-07
-0.000116709
3.69025e-07
-4.08387e-07
0.000117416
-6.66715e-07
-6.6053e-11
3.58059e-07
-6.49987e-07
3.5799e-07
-4.10826e-07
-6.49999e-07
-1.50186e-10
-0.000112945
0.000113761
-0.000112946
-4.46888e-07
0.000113761
-3.5385e-10
-4.50294e-07
-1.24718e-07
-0.000116726
-1.26321e-07
0.000117419
-8.5039e-07
-0.000116731
6.70207e-08
2.68587e-06
0.000117401
-3.54714e-06
-1.26693e-07
-1.38749e-07
-8.35254e-07
5.44057e-08
2.68866e-06
-3.53809e-06
-1.36571e-06
-0.000113023
0.000113815
-0.0001131
-2.05203e-06
0.000113853
-1.3732e-06
-2.06162e-06
1.96521e-06
-0.000116688
1.81863e-05
0.000117337
-1.81146e-05
-0.000116462
-1.48009e-05
0.000117071
1.61575e-05
1.96552e-06
1.81991e-05
-1.81196e-05
-1.48475e-05
1.62138e-05
1.54327e-05
-0.000113064
0.000113766
-0.000112162
0.000112794
1.5452e-05
-1.91344e-06
-0.000117669
-1.44509e-05
0.000118276
1.57576e-05
-0.00011797
1.77895e-05
-2.61883e-06
0.000118597
-1.77107e-05
-1.91791e-06
-1.44737e-05
1.57958e-05
1.78126e-05
-2.62331e-06
-1.77413e-05
-1.5068e-05
-0.000113432
0.000114049
-0.000114457
2.00514e-06
0.000115173
-1.51215e-05
2.00602e-06
1.22235e-07
-0.00011806
7.47931e-08
0.00011871
-3.46555e-06
-0.000118099
-1.1201e-07
3.96689e-07
0.000118773
-8.3604e-07
1.22429e-07
7.20934e-08
-3.47705e-06
-1.15731e-07
3.98281e-07
-8.39891e-07
1.32856e-06
-0.000114597
0.000115348
-0.000114597
4.33839e-07
0.000115379
1.33343e-06
4.35701e-07
2.71322e-11
-0.000118107
3.70206e-07
0.000118793
-6.59177e-07
-0.000118107
3.70214e-07
-3.96788e-07
0.000118793
-6.59162e-07
1.01792e-10
3.68251e-07
-6.61403e-07
3.68279e-07
-3.98062e-07
-6.61428e-07
1.32839e-10
-0.000114565
0.000115369
-0.000114565
-4.33566e-07
0.000115369
5.38236e-11
-4.35468e-07
-1.228e-07
-0.000118099
-1.12085e-07
0.000118773
-8.3609e-07
-0.00011806
7.55688e-08
2.61736e-06
0.000118711
-3.46675e-06
-1.21921e-07
-1.15874e-07
-8.39918e-07
7.16583e-08
2.62466e-06
-3.47699e-06
-1.32869e-06
-0.000114597
0.00011538
-0.000114597
-2.00601e-06
0.00011535
-1.33273e-06
-2.00468e-06
1.91573e-06
-0.000117968
1.7799e-05
0.000118589
-1.77183e-05
-0.000117671
-1.44639e-05
0.000118283
1.5768e-05
1.92211e-06
1.78111e-05
-1.77397e-05
-1.44724e-05
1.57941e-05
1.50701e-05
-0.000114454
0.000115176
-0.00011344
0.000114046
1.51185e-05
-1.87212e-06
-0.000118847
-1.40844e-05
0.000119405
1.53988e-05
-0.00011921
1.73285e-05
-2.54481e-06
0.000119806
-1.72511e-05
-1.87375e-06
-1.41062e-05
1.54084e-05
1.737e-05
-2.55322e-06
-1.7304e-05
-1.46903e-05
-0.00011467
0.000115276
-0.000115854
1.96051e-06
0.000116531
-1.47269e-05
1.96241e-06
1.23935e-07
-0.000119343
5.44588e-08
0.000119957
-3.33744e-06
-0.000119423
-1.19021e-07
3.86371e-07
0.000120057
-7.77176e-07
1.21743e-07
6.46025e-08
-3.37261e-06
-1.1181e-07
3.87169e-07
-8.04347e-07
1.29331e-06
-0.000116078
0.000116799
-0.000116142
4.21665e-07
0.000116895
1.29763e-06
4.23158e-07
1.57168e-11
-0.000119453
3.49428e-07
0.000120097
-6.07021e-07
-0.000119453
3.49241e-07
-3.86238e-07
0.000120097
-6.06882e-07
1.96384e-11
3.59039e-07
-6.32726e-07
3.5898e-07
-3.87159e-07
-6.32683e-07
2.52348e-10
-0.000116151
0.000116922
-0.000116151
-4.21274e-07
0.000116922
1.49878e-10
-4.22919e-07
-1.23504e-07
-0.000119424
-1.19258e-07
0.000120057
-7.7703e-07
-0.000119344
5.49205e-08
2.54497e-06
0.000119959
-3.3381e-06
-1.21731e-07
-1.11862e-07
-8.04497e-07
6.58293e-08
2.55292e-06
-3.37402e-06
-1.29331e-06
-0.000116143
0.000116896
-0.00011608
-1.96072e-06
0.000116802
-1.29769e-06
-1.96232e-06
1.86231e-06
-0.000119207
1.73214e-05
0.000119813
-1.72445e-05
-0.000118851
-1.40823e-05
0.000119403
1.53928e-05
1.86985e-06
1.73678e-05
-1.73021e-05
-1.41075e-05
1.54091e-05
1.46809e-05
-0.000115857
0.000116537
-0.000114663
0.000115262
1.47248e-05
-1.82209e-06
-0.000119935
-1.38006e-05
0.000120444
1.51136e-05
-0.000120365
1.68885e-05
-2.47163e-06
0.000120884
-1.67575e-05
-1.82643e-06
-1.37965e-05
1.50928e-05
1.69319e-05
-2.48191e-06
-1.68359e-05
-1.43233e-05
-0.000115829
0.000116352
-0.000117189
1.91996e-06
0.000117835
-1.43497e-05
1.92417e-06
1.27482e-07
-0.000120539
1.39306e-08
0.000121087
-3.1604e-06
-0.000120656
-1.49319e-07
3.76894e-07
0.000121224
-6.67733e-07
1.24459e-07
3.5566e-08
-3.22389e-06
-1.29861e-07
3.77661e-07
-7.22367e-07
1.25895e-06
-0.000117495
0.00011817
-0.000117617
4.11025e-07
0.000118315
1.26453e-06
4.12611e-07
-3.65043e-10
-0.000120705
3.02878e-07
0.000121283
-5.03129e-07
-0.000120705
3.02508e-07
-3.77435e-07
0.000121283
-5.0288e-07
-1.68558e-10
3.26334e-07
-5.56621e-07
3.26005e-07
-3.77812e-07
-5.56384e-07
-5.12648e-10
-0.000117661
0.000118375
-0.000117661
-4.12487e-07
0.000118375
-1.18841e-11
-4.12852e-07
-1.27463e-07
-0.000120656
-1.50322e-07
0.000121223
-6.66933e-07
-0.00012054
1.20009e-08
2.47441e-06
0.000121086
-3.15967e-06
-1.24241e-07
-1.30525e-07
-7.21732e-07
3.5358e-08
2.48314e-06
-3.22424e-06
-1.26053e-06
-0.000117617
0.000118315
-0.000117495
-1.92055e-06
0.000118167
-1.26494e-06
-1.92201e-06
1.8264e-06
-0.000120373
1.68972e-05
0.000120891
-1.67664e-05
-0.000119926
-1.3801e-05
0.000120434
1.51197e-05
1.82617e-06
1.69405e-05
-1.68444e-05
-1.37966e-05
1.50994e-05
1.43379e-05
-0.000117184
0.000117823
-0.000115837
0.000116374
1.43716e-05
-1.77471e-06
-0.000120882
-1.34824e-05
0.000121278
1.48613e-05
-0.000121372
1.63662e-05
-2.40303e-06
0.000121817
-1.61834e-05
-1.7829e-06
-1.3484e-05
1.48291e-05
1.64512e-05
-2.41032e-06
-1.63117e-05
-1.39469e-05
-0.000116867
0.000117331
-0.000118408
1.87598e-06
0.000118951
-1.39989e-05
1.87903e-06
1.31373e-07
-0.00012159
-6.47378e-08
0.000122039
-2.9193e-06
-0.000121743
-2.09114e-07
3.67966e-07
0.000122215
-4.99938e-07
1.27936e-07
-2.35003e-08
-3.01758e-06
-1.74055e-07
3.68285e-07
-5.85437e-07
1.22372e-06
-0.000118795
0.000119383
-0.000118969
4.01873e-07
0.000119582
1.22981e-06
4.0215e-07
-2.97234e-10
-0.000121811
2.25707e-07
0.000122293
-3.39913e-07
-0.000121811
2.25579e-07
-3.68684e-07
0.000122294
-3.39735e-07
-3.82139e-10
2.65527e-07
-4.25009e-07
2.65253e-07
-3.69032e-07
-4.24769e-07
-4.02588e-10
-0.000119043
0.000119671
-0.000119043
-4.03016e-07
0.000119672
-4.51959e-10
-4.03453e-07
-1.32674e-07
-0.000121743
-2.09554e-07
0.000122215
-4.99199e-07
-0.000121589
-6.54134e-08
2.40168e-06
0.000122039
-2.91917e-06
-1.28809e-07
-1.74856e-07
-5.8454e-07
-2.6017e-08
2.41037e-06
-3.01621e-06
-1.22634e-06
-0.000118968
0.000119582
-0.000118793
-1.88039e-06
0.000119382
-1.23158e-06
-1.88412e-06
1.78495e-06
-0.000121377
1.63823e-05
0.000121814
-1.62027e-05
-0.000120881
-1.34915e-05
0.00012128
1.48777e-05
1.78616e-06
1.64549e-05
-1.63167e-05
-1.3494e-05
1.48326e-05
1.39657e-05
-0.00011841
0.000118946
-0.000116863
0.000117337
1.39834e-05
-1.74314e-06
-0.000121612
-1.32602e-05
0.000121895
1.47204e-05
-0.000122198
1.58744e-05
-2.33285e-06
0.000122504
-1.55899e-05
-1.73887e-06
-1.32222e-05
1.46268e-05
1.59491e-05
-2.34195e-06
-1.57272e-05
-1.36003e-05
-0.000117734
0.000118074
-0.000119434
1.84496e-06
0.000119863
-1.36251e-05
1.84145e-06
1.41786e-07
-0.000122435
-1.9066e-07
0.000122767
-2.61517e-06
-0.000122626
-2.95205e-07
3.60834e-07
0.000122975